assembly
 5381
    1ALA     BB    1   5.409   3.482   4.944 -0.1756 -0.0147  0.0530
    1ALA    SC1    2   5.194   3.444   4.786 -0.0886  0.0303 -0.0776
    2LEU     BB    3   5.533   3.694   4.747  0.0480  0.1006  0.2386
    2LEU    SC1    4   5.424   4.006   4.771  0.0982  0.0275 -0.1447
    3ALA     BB    5   5.648   3.452   4.565  0.3377  0.0238  0.1052
    3ALA    SC1    6   5.892   3.337   4.583  0.1420 -0.3890  0.2405
    4LEU     BB    7   5.371   3.289   4.407 -0.0097 -0.0286  0.1981
    4LEU    SC1    8   5.243   3.007   4.665  0.1083  0.0297  0.2985
    5ALA     BB    9   5.317   3.583   4.261  0.0214  0.3719 -0.0598
    5ALA    SC1   10   5.201   3.701   4.475  0.0041 -0.0289  0.1619
    6LEU     BB   11   5.570   3.744   4.132 -0.1104  0.1117  0.1186
    6LEU    SC1   12   5.652   3.941   4.434 -0.1651 -0.0806  0.0576
    7ALA     BB   13   5.704   3.437   4.008  0.4849 -0.3228  0.1996
    7ALA    SC1   14   5.734   3.254   4.204  0.1174 -0.1807  0.3982
    8LEU     BB   15   5.462   3.325   3.816  0.0007  0.0428 -0.0128
    8LEU    SC1   16   5.135   3.264   3.956 -0.2042 -0.0296  0.0864
    9ALA     BB   17   5.393   3.598   3.694  0.0328  0.0715 -0.1084
    9ALA    SC1   18   5.171   3.655   3.836 -0.0496 -0.5528  0.0425
   10LEU     BB   19   5.683   3.664   3.535 -0.2061 -0.4215  0.1604
   10LEU    SC1   20   5.932   3.681   3.808 -0.1230 -0.0518 -0.0595
   11ALA     BB   21   5.782   3.456   3.394 -0.3525  0.1679  0.0535
   11ALA    SC1   22   5.926   3.387   3.176 -0.3818  0.2328  0.0132
   12LEU     BB   23   5.458   3.297   3.237  0.1267  0.3106  0.2674
   12LEU    SC1   24   5.562   3.025   3.418 -0.0428 -0.1214 -0.0162
   13ALA     BB   25   5.427   3.580   3.060 -0.1428 -0.0347 -0.4274
   13ALA    SC1   26   5.174   3.529   2.980 -0.2788  0.1353 -0.1208
   14LEU     BB   27   5.704   3.657   2.893 -0.2701  0.0433 -0.0053
   14LEU    SC1   28   5.867   3.904   3.098  0.1179 -0.0335 -0.0607
   15ALA     BB   29   5.713   3.362   2.781 -0.0038  0.0031  0.1970
   15ALA    SC1   30   5.699   3.138   2.932  0.0040 -0.0575  0.1082
   16LEU     BB   31   5.482   3.377   2.574  0.3938 -0.1328  0.4054
   16LEU    SC1   32   5.258   3.208   2.813 -0.0165  0.0900 -0.3406
   17TRP     BB   33   5.428   3.714   2.506 -0.0765 -0.3232  0.2452
   17TRP    SC1   34   5.204   3.774   2.699 -0.0513  0.1408 -0.1660
   17TRP    SC2   35   4.873   3.751   2.651 -0.0727  0.1061 -0.0081
   17TRP    SC3   36   4.977   3.848   2.849 -0.0013 -0.0073  0.0061
   17TRP    SC4   37   5.061   3.928   3.044  0.0966  0.0521 -0.0640
   17TRP    SC5   38   4.771   3.941   3.002  0.0225 -0.3283  0.2625
   18TRP     BB   39   5.829   3.788   2.453 -0.2348  0.1199 -0.0541
   18TRP    SC1   40   6.034   3.567   2.566  0.0727  0.0218  0.0456
   18TRP    SC2   41   6.127   3.283   2.413 -0.0340 -0.0589  0.1290
   18TRP    SC3   42   6.272   3.476   2.446  0.0038 -0.0585 -0.0057
   18TRP    SC4   43   6.422   3.643   2.481  0.1504 -0.2180  0.1775
   18TRP    SC5   44   6.507   3.412   2.323 -0.1738  0.0211 -0.3749
   19GLY     BB   45   5.777   3.446   2.277 -0.0366  0.0882  0.0312
   20POPC   NC3   46   1.401   2.026   5.490  0.2019  0.0173  0.1541
   20POPC   PO4   47   1.007   2.046   5.351  0.1897  0.1677 -0.2140
   20POPC   GL1   48   1.201   2.198   5.061 -0.1076 -0.2168  0.0074
   20POPC   GL2   49   1.294   1.918   4.974 -0.2633  0.0967 -0.1554
   20POPC   C1A   50   1.440   2.334   4.721 -0.2103  0.1216 -0.0508
   20POPC   D2A   51   1.408   2.707   4.461  0.0630 -0.1421 -0.0541
   20POPC   C3A   52   1.100   2.659   4.136 -0.1259  0.0145 -0.1017
   20POPC   C4A   53   0.895   2.305   3.958  0.0084  0.1516  0.3521
   20POPC   C1B   54   1.187   1.642   4.647  0.1617 -0.2248  0.0020
   20POPC   C2B   55   1.384   1.626   4.241 -0.2785 -0.1397  0.0397
   20POPC   C3B   56   1.459   1.390   3.882  0.0086 -0.1411  0.1459
   20POPC   C4B   57   1.262   1.128   3.562 -0.0912 -0.0341 -0.0788
   21POPC   NC3   58   7.101   4.445   5.170  0.0007  0.1095 -0.1739
   21POPC   PO4   59   6.707   4.408   5.216  0.0654 -0.2058  0.0828
   21POPC   GL1   60   6.686   4.186   4.931  0.1784 -0.0470  0.2949
   21POPC   GL2   61   6.382   4.210   4.878  0.2779 -0.2759  0.2104
   21POPC   C1A   62   6.897   4.080   4.524 -0.0659  0.0866 -0.3294
   21POPC   D2A   63   6.736   4.182   4.074  0.0753 -0.0832 -0.1290
   21POPC   C3A   64   6.757   3.984   3.622  0.0626 -0.0952  0.0720
   21POPC   C4A   65   6.611   4.046   3.191  0.1338 -0.0704 -0.2317
   21POPC   C1B   66   6.118   4.587   4.643  0.3882 -0.1919 -0.0703
   21POPC   C2B   67   6.025   5.086   4.552 -0.1174  0.0280 -0.1800
   21POPC   C3B   68   5.946   5.510   4.331 -0.1957 -0.1471  0.0880
   21POPC   C4B   69   6.021   5.899   4.062  0.0636 -0.0594 -0.2081
   22POPC   NC3   70   2.431   8.234   5.607 -0.0692 -0.0179  0.0008
   22POPC   PO4   71   2.398   8.612   5.757  0.1274 -0.0533  0.1763
   22POPC   GL1   72   2.205   8.594   5.358 -0.0390 -0.0143 -0.4073
   22POPC   GL2   73   2.202   8.861   5.233 -0.0708  0.0121  0.4220
   22POPC   C1A   74   1.968   8.426   5.022  0.2312  0.1569  0.1002
   22POPC   D2A   75   1.837   8.043   4.904  0.2786 -0.0086  0.2011
   22POPC   C3A   76   2.066   7.935   4.472 -0.6344  0.2101  0.1284
   22POPC   C4A   77   2.136   7.759   4.012 -0.2702  0.1342 -0.1202
   22POPC   C1B   78   2.515   8.768   4.911 -0.1165  0.0201  0.1266
   22POPC   C2B   79   2.449   8.798   4.480  0.2759  0.0959 -0.0564
   22POPC   C3B   80   2.382   8.567   4.025 -0.3895 -0.1685  0.0855
   22POPC   C4B   81   2.482   8.159   3.831 -0.0534  0.0427 -0.2452
   23POPC   NC3   82   3.761   2.620   5.925  0.0439  0.0054  0.1248
   23POPC   PO4   83   3.652   2.592   5.567  0.1161  0.0374  0.0663
   23POPC   GL1   84   3.530   2.479   5.197 -0.1026 -0.2030  0.4362
   23POPC   GL2   85   3.638   2.686   5.055  0.0483 -0.0664 -0.4920
   23POPC   C1A   86   3.633   2.353   4.730  0.0752  0.0090  0.1221
   23POPC   D2A   87   3.902   2.215   4.366  0.2023 -0.2083 -0.0526
   23POPC   C3A   88   3.604   2.281   4.018  0.0017 -0.0382 -0.1129
   23POPC   C4A   89   3.429   2.196   3.551  0.0956  0.2899  0.0183
   23POPC   C1B   90   3.508   3.005   4.761 -0.3036  0.2055 -0.4267
   23POPC   C2B   91   3.452   3.126   4.348  0.1443  0.1390  0.1728
   23POPC   C3B   92   3.300   3.120   3.914 -0.0665 -0.3021  0.0692
   23POPC   C4B   93   2.880   3.144   3.747  0.2675  0.0689 -0.2592
   24POPC   NC3   94   8.168   7.541   6.065  0.1462  0.2100 -0.0878
   24POPC   PO4   95   8.206   7.181   5.970 -0.3699  0.2150  0.1084
   24POPC   GL1   96   8.335   7.367   5.628 -0.0357  0.0387 -0.1184
   24POPC   GL2   97   8.423   7.164   5.482  0.1635  0.4299  0.1248
   24POPC   C1A   98   8.617   7.671   5.393 -0.1061 -0.3698  0.4749
   24POPC   D2A   99   9.024   7.966   5.365 -0.0068 -0.1905 -0.0680
   24POPC   C3A  100   9.192   7.759   4.998 -0.1433 -0.1081 -0.0675
   24POPC   C4A  101   9.255   7.387   4.763  0.2218 -0.0078 -0.2402
   24POPC   C1B  102   8.434   7.074   5.049  0.0646  0.2706  0.2058
   24POPC   C2B  103   8.513   6.972   4.614  0.1527 -0.1802 -0.0857
   24POPC   C3B  104   8.502   7.165   4.156  0.0033 -0.1018  0.3342
   24POPC   C4B  105   8.249   7.405   3.844 -0.2179 -0.2441 -0.1873
   25POPC   NC3  106   3.622   7.452   5.835  0.2054  0.0461 -0.1199
   25POPC   PO4  107   3.323   7.245   5.664  0.1574  0.3303  0.1616
   25POPC   GL1  108   3.230   7.144   5.264 -0.3020 -0.0873  0.0833
   25POPC   GL2  109   3.142   6.843   5.352  0.0423  0.1324  0.1305
   25POPC   C1A  110   3.391   7.033   4.860 -0.2943  0.1030 -0.1429
   25POPC   D2A  111   3.311   6.759   4.556  0.0626 -0.2112  0.2528
   25POPC   C3A  112   3.128   6.307   4.616 -0.0777 -0.1777  0.2071
   25POPC   C4A  113   2.987   5.907   4.334  0.0863  0.2517  0.0332
   25POPC   C1B  114   2.962   6.727   4.901  0.0273  0.0008 -0.0100
   25POPC   C2B  115   2.677   6.506   4.552 -0.1487  0.0604 -0.0638
   25POPC   C3B  116   2.465   6.707   4.137  0.0715 -0.0937  0.1206
   25POPC   C4B  117   2.179   7.021   3.911  0.0125  0.0028  0.2150
   26POPC   NC3  118   3.390   2.111   5.529  0.2080 -0.1822 -0.1736
   26POPC   PO4  119   3.144   2.397   5.534  0.0989  0.2206  0.1877
   26POPC   GL1  120   3.165   2.316   5.130 -0.2723 -0.0419  0.0549
   26POPC   GL2  121   2.996   2.556   4.960 -0.0006  0.2041  0.2237
   26POPC   C1A  122   3.161   2.199   4.681 -0.1554 -0.1850  0.2163
   26POPC   D2A  123   3.372   1.943   4.350  0.0749 -0.1001  0.0153
   26POPC   C3A  124   3.285   1.842   3.910  0.1647 -0.0080 -0.0199
   26POPC   C4A  125   3.161   1.744   3.429  0.1310 -0.0628 -0.0826
   26POPC   C1B  126   2.965   2.949   4.734 -0.0985 -0.1944  0.2586
   26POPC   C2B  127   2.953   3.249   4.386  0.0214  0.0680 -0.2818
   26POPC   C3B  128   3.160   3.525   4.140  0.0106  0.2138  0.1299
   26POPC   C4B  129   3.601   3.610   4.041  0.0305 -0.1452  0.0336
   27POPC   NC3  130   7.066   8.477   6.029 -0.2596  0.0242 -0.1832
   27POPC   PO4  131   6.736   8.357   5.925 -0.0952 -0.0792  0.3659
   27POPC   GL1  132   6.610   8.264   5.498 -0.3114 -0.2185  0.0301
   27POPC   GL2  133   6.878   8.148   5.446 -0.2642 -0.2104  0.1650
   27POPC   C1A  134   6.742   8.641   5.247  0.0837  0.1663 -0.2147
   27POPC   D2A  135   6.494   8.724   4.853 -0.1323 -0.0677 -0.0545
   27POPC   C3A  136   6.659   8.951   4.425 -0.1458 -0.2491  0.0152
   27POPC   C4A  137   6.804   9.158   3.979 -0.3615 -0.0713  0.0299
   27POPC   C1B  138   6.900   8.274   5.020 -0.2669  0.4333  0.1004
   27POPC   C2B  139   6.781   8.409   4.571  0.3320 -0.3817  0.3068
   27POPC   C3B  140   6.889   8.620   4.151  0.1630  0.0749  0.0188
   27POPC   C4B  141   6.923   8.710   3.708 -0.0105 -0.1557 -0.2536
   28POPC   NC3  142   0.593   8.364   6.400  0.0319  0.1374  0.0809
   28POPC   PO4  143   0.406   8.052   6.198  0.3543 -0.5779  0.0241
   28POPC   GL1  144   0.331   8.042   5.803  0.0657 -0.0120 -0.2415
   28POPC   GL2  145   0.415   8.345   5.665 -0.1526 -0.1882  0.0583
   28POPC   C1A  146   0.620   7.888   5.454  0.2506  0.0840  0.0173
   28POPC   D2A  147   0.863   8.129   5.205 -0.1688  0.2406 -0.2983
   28POPC   C3A  148   0.952   8.467   4.899 -0.0527 -0.0069 -0.2797
   28POPC   C4A  149   1.019   8.684   4.501 -0.1775 -0.2870 -0.1182
   28POPC   C1B  150   0.367   8.309   5.204  0.0515 -0.0684 -0.1089
   28POPC   C2B  151   0.548   8.068   4.785 -0.0371  0.0843 -0.0380
   28POPC   C3B  152   0.461   7.796   4.340 -0.0995 -0.1849 -0.2873
   28POPC   C4B  153   0.662   7.980   3.951  0.3528  0.3905 -0.1237
   29POPC   NC3  154   7.035   3.908   5.853 -0.1084  0.1248 -0.0265
   29POPC   PO4  155   7.139   4.133   5.536  0.2625  0.0899  0.2434
   29POPC   GL1  156   7.343   4.080   5.143  0.2043  0.4602 -0.0409
   29POPC   GL2  157   7.565   3.991   5.266 -0.1514 -0.3445 -0.1828
   29POPC   C1A  158   7.403   4.164   4.666 -0.0033  0.1922 -0.0203
   29POPC   D2A  159   7.449   4.138   4.240 -0.0078 -0.0696  0.0969
   29POPC   C3A  160   7.102   4.460   4.239  0.0631 -0.1125 -0.0486
   29POPC   C4A  161   6.977   4.859   4.039  0.0001  0.3532  0.0974
   29POPC   C1B  162   7.800   4.127   4.900  0.0670  0.2499  0.0394
   29POPC   C2B  163   8.053   4.236   4.602  0.0144  0.1135  0.0824
   29POPC   C3B  164   8.263   4.132   4.232 -0.0003  0.0362 -0.0464
   29POPC   C4B  165   8.636   3.985   3.910  0.0340 -0.1456  0.3460
   30POPC   NC3  166   2.572   5.986   5.637  0.0852 -0.1421 -0.0063
   30POPC   PO4  167   2.331   5.768   5.851 -0.0114 -0.1399 -0.2375
   30POPC   GL1  168   2.231   5.763   5.483  0.0883 -0.0325  0.5024
   30POPC   GL2  169   2.136   5.521   5.303  0.4618  0.0251 -0.1167
   30POPC   C1A  170   2.583   5.716   5.169 -0.1070 -0.0834 -0.5780
   30POPC   D2A  171   2.787   5.504   4.843  0.0853 -0.0182 -0.0464
   30POPC   C3A  172   2.653   5.160   4.567  0.1735  0.2075  0.0119
   30POPC   C4A  173   2.877   4.949   4.225  0.1214 -0.0334 -0.2214
   30POPC   C1B  174   2.142   5.304   4.903  0.3234  0.3182 -0.2496
   30POPC   C2B  175   2.186   5.294   4.421 -0.0598 -0.2727 -0.1180
   30POPC   C3B  176   2.168   5.372   3.928 -0.1523  0.0395  0.1658
   30POPC   C4B  177   2.236   5.301   3.454  0.0019 -0.0246 -0.3490
   31POPC   NC3  178   4.111   8.150   6.055  0.2207 -0.2806 -0.2728
   31POPC   PO4  179   4.262   7.826   5.888  0.0793 -0.0449  0.0009
   31POPC   GL1  180   4.161   7.991   5.573 -0.0967  0.1731 -0.0766
   31POPC   GL2  181   4.215   7.707   5.390  0.0688  0.0280 -0.0581
   31POPC   C1A  182   4.293   8.084   5.143  0.0405 -0.0455  0.1916
   31POPC   D2A  183   4.585   7.943   4.867  0.2473  0.1001  0.0698
   31POPC   C3A  184   4.330   8.041   4.489  0.1321  0.0505  0.1902
   31POPC   C4A  185   4.141   8.235   4.089 -0.1173  0.3821 -0.1110
   31POPC   C1B  186   4.281   7.533   4.961  0.2579 -0.2239  0.0189
   31POPC   C2B  187   4.405   7.369   4.552 -0.3960 -0.2912 -0.3077
   31POPC   C3B  188   4.239   7.249   4.113 -0.1234 -0.0810  0.0676
   31POPC   C4B  189   4.306   7.095   3.662 -0.0550  0.1786  0.0341
   32POPC   NC3  190   0.069   6.161   5.904 -0.0174 -0.0516 -0.0061
   32POPC   PO4  191   0.395   6.052   5.720 -0.3540  0.0154 -0.1126
   32POPC   GL1  192   0.353   6.091   5.338 -0.2586 -0.0688  0.1512
   32POPC   GL2  193   0.507   5.848   5.252  0.1108  0.0320  0.1206
   32POPC   C1A  194   0.088   5.988   4.969 -0.0868  0.0326 -0.1853
   32POPC   D2A  195  -0.026   5.993   4.508  0.3683 -0.3817 -0.3311
   32POPC   C3A  196  -0.223   6.102   4.106 -0.0751  0.3879 -0.1223
   32POPC   C4A  197  -0.546   6.179   3.802  0.4406  0.3433  0.0128
   32POPC   C1B  198   0.485   5.707   4.851  0.1328  0.0065 -0.3997
   32POPC   C2B  199   0.626   5.421   4.551 -0.3950 -0.0124  0.1431
   32POPC   C3B  200   0.953   5.213   4.263  0.0423  0.0869  0.0651
   32POPC   C4B  201   1.239   5.121   3.943 -0.0186 -0.1223  0.1788
   33POPC   NC3  202   1.519   1.533   5.285  0.0191 -0.0208  0.2865
   33POPC   PO4  203   1.840   1.795   5.348  0.0035  0.1297 -0.3323
   33POPC   GL1  204   1.847   1.698   4.994 -0.2221  0.0011 -0.2482
   33POPC   GL2  205   2.166   1.688   4.963  0.3596  0.2683  0.5480
   33POPC   C1A  206   1.643   1.923   4.589 -0.1345 -0.0567  0.1853
   33POPC   D2A  207   1.670   2.256   4.300  0.0220 -0.0474 -0.1535
   33POPC   C3A  208   1.987   2.119   3.995  0.1215 -0.0625 -0.0496
   33POPC   C4A  209   2.301   2.163   3.665  0.0967  0.0534  0.2504
   33POPC   C1B  210   1.971   1.547   4.544  0.1164  0.3086  0.2814
   33POPC   C2B  211   1.850   1.632   4.123 -0.1495 -0.4941  0.3437
   33POPC   C3B  212   2.142   1.629   3.817 -0.1252 -0.0613  0.2266
   33POPC   C4B  213   2.514   1.595   3.450 -0.1598 -0.1458 -0.2347
   34POPC   NC3  214   5.343   0.589   6.252 -0.0519 -0.1172  0.2420
   34POPC   PO4  215   4.985   0.775   6.146  0.0168 -0.0351  0.0223
   34POPC   GL1  216   5.048   0.851   5.779 -0.0960  0.1342  0.3420
   34POPC   GL2  217   4.918   0.608   5.622 -0.1204  0.2400 -0.1243
   34POPC   C1A  218   5.366   0.811   5.444 -0.1039 -0.0769  0.1065
   34POPC   D2A  219   5.208   0.733   5.043 -0.0014 -0.3034  0.0777
   34POPC   C3A  220   5.607   0.885   4.878  0.2058 -0.2464  0.2426
   34POPC   C4A  221   5.865   0.589   4.680  0.0913 -0.0820  0.0453
   34POPC   C1B  222   5.039   0.242   5.348 -0.1326 -0.1801  0.0519
   34POPC   C2B  223   4.931  -0.182   5.185 -0.1478  0.0090 -0.0714
   34POPC   C3B  224   5.232  -0.491   5.091 -0.4574 -0.1445  0.3826
   34POPC   C4B  225   5.501  -0.687   4.854  0.1612  0.2290  0.0442
   35POPC   NC3  226   4.392   5.023   5.336  0.1551 -0.3492 -0.0467
   35POPC   PO4  227   4.613   4.773   5.543 -0.4597 -0.0969  0.0908
   35POPC   GL1  228   4.675   4.647   5.126  0.0374  0.3042  0.1587
   35POPC   GL2  229   4.828   4.865   5.055  0.3209  0.1408 -0.2507
   35POPC   C1A  230   4.655   4.638   4.648  0.0288 -0.1632 -0.3237
   35POPC   D2A  231   4.541   4.288   4.298 -0.0909 -0.0873  0.0703
   35POPC   C3A  232   4.209   4.354   4.010  0.5102  0.0278  0.1701
   35POPC   C4A  233   4.089   4.362   3.495  0.3272  0.1782  0.1710
   35POPC   C1B  234   4.947   5.045   4.643  0.0802 -0.1345  0.1645
   35POPC   C2B  235   5.076   5.109   4.222 -0.2912 -0.0604 -0.2312
   35POPC   C3B  236   5.316   5.299   3.846  0.0470  0.1204 -0.0856
   35POPC   C4B  237   5.730   5.227   3.644 -0.0778 -0.1101  0.1677
   36POPC   NC3  238   3.229   0.230   5.808  0.1046 -0.4091 -0.0407
   36POPC   PO4  239   2.979   0.143   5.515  0.3639 -0.3346  0.3802
   36POPC   GL1  240   3.086   0.020   5.157 -0.1396  0.2033 -0.2656
   36POPC   GL2  241   3.112  -0.341   5.197 -0.1678 -0.1393 -0.2664
   36POPC   C1A  242   2.912  -0.048   4.743 -0.0511  0.1640 -0.0853
   36POPC   D2A  243   2.756   0.186   4.351  0.0075  0.1281  0.0934
   36POPC   C3A  244   2.731  -0.066   3.949 -0.0253 -0.1420 -0.0670
   36POPC   C4A  245   2.602  -0.337   3.619  0.1442 -0.3524 -0.1195
   36POPC   C1B  246   3.338  -0.429   4.768  0.0271 -0.1759 -0.1089
   36POPC   C2B  247   3.511  -0.551   4.338 -0.5652  0.1678  0.0791
   36POPC   C3B  248   3.596  -0.894   3.993  0.3219 -0.1044 -0.0627
   36POPC   C4B  249   3.395  -1.051   3.566  0.0185 -0.1180 -0.0736
   37POPC   NC3  250   5.260   2.742   5.294 -0.0848  0.0315 -0.0385
   37POPC   PO4  251   5.431   3.126   5.359 -0.0878 -0.1431  0.1273
   37POPC   GL1  252   5.577   2.960   5.019 -0.5538  0.0951  0.1369
   37POPC   GL2  253   5.886   3.070   4.968  0.0394 -0.0992 -0.1828
   37POPC   C1A  254   5.683   2.887   4.563  0.2165  0.4705 -0.0031
   37POPC   D2A  255   5.637   2.886   4.081 -0.2816  0.1049  0.0104
   37POPC   C3A  256   5.696   2.650   3.677  0.2231  0.2170 -0.0688
   37POPC   C4A  257   5.449   2.625   3.296  0.1276  0.2638 -0.1263
   37POPC   C1B  258   6.155   3.020   4.529 -0.0679  0.0526 -0.1699
   37POPC   C2B  259   6.594   3.029   4.405 -0.0578  0.1611  0.2889
   37POPC   C3B  260   7.039   3.005   4.339 -0.0513 -0.0378 -0.1129
   37POPC   C4B  261   7.303   2.833   3.985  0.1273 -0.0629 -0.1622
   38POPC   NC3  262   2.300   1.696   5.429  0.0958 -0.0480 -0.0742
   38POPC   PO4  263   2.591   1.654   5.194 -0.1601 -0.2442 -0.1890
   38POPC   GL1  264   2.740   1.489   4.817 -0.0220  0.3457  0.1652
   38POPC   GL2  265   2.542   1.501   4.677 -0.0529  0.0442  0.3942
   38POPC   C1A  266   2.727   1.084   4.580 -0.2145  0.0778  0.1762
   38POPC   D2A  267   2.534   0.735   4.331 -0.3561  0.0763  0.0124
   38POPC   C3A  268   2.869   0.607   4.014 -0.0847  0.0166 -0.1339
   38POPC   C4A  269   2.879   0.719   3.560 -0.1344 -0.0940  0.1161
   38POPC   C1B  270   2.347   1.344   4.235  0.0475  0.0708 -0.1263
   38POPC   C2B  271   2.364   1.151   3.815  0.0155  0.1013  0.0432
   38POPC   C3B  272   2.439   1.085   3.377 -0.2813  0.0005 -0.5268
   38POPC   C4B  273   2.563   1.134   2.915  0.3347  0.0579  0.2806
   39POPC   NC3  274   0.280   1.186   4.884 -0.2029 -0.1221  0.0935
   39POPC   PO4  275  -0.072   1.324   4.982  0.0424 -0.1227  0.1809
   39POPC   GL1  276  -0.263   1.352   4.653 -0.2855 -0.2893 -0.3527
   39POPC   GL2  277  -0.531   1.398   4.685  0.0432  0.3074 -0.0983
   39POPC   C1A  278  -0.408   1.135   4.259 -0.0721 -0.1188 -0.2987
   39POPC   D2A  279  -0.709   0.866   4.117  0.0674  0.1712 -0.1379
   39POPC   C3A  280  -0.554   0.490   4.306 -0.0256 -0.1351  0.1282
   39POPC   C4A  281  -0.379   0.057   4.206  0.0341  0.2747 -0.0289
   39POPC   C1B  282  -0.435   1.674   4.338 -0.1285 -0.0012 -0.0892
   39POPC   C2B  283  -0.601   1.836   3.874  0.2105 -0.0096 -0.3953
   39POPC   C3B  284  -0.299   1.879   3.504 -0.2170 -0.2369  0.0431
   39POPC   C4B  285   0.143   1.856   3.394 -0.0459  0.0097  0.1578
   40POPC   NC3  286   8.057   0.443   5.922 -0.0263  0.1424  0.0007
   40POPC   PO4  287   8.089   0.593   5.556  0.2055  0.0681 -0.2109
   40POPC   GL1  288   7.932   0.535   5.158  0.1979  0.2869 -0.2358
   40POPC   GL2  289   7.917   0.270   5.132 -0.1752  0.2007 -0.1198
   40POPC   C1A  290   7.687   0.794   4.942 -0.0666  0.1712  0.1925
   40POPC   D2A  291   7.434   1.059   4.658  0.0703 -0.1683 -0.1427
   40POPC   C3A  292   7.021   1.027   4.874  0.0659 -0.0979 -0.1888
   40POPC   C4A  293   6.531   1.029   4.887  0.0875 -0.0610 -0.3720
   40POPC   C1B  294   7.803   0.334   4.736  0.3733  0.2925 -0.2073
   40POPC   C2B  295   7.596   0.402   4.354  0.1293  0.1227 -0.3017
   40POPC   C3B  296   7.421   0.362   3.953  0.0526  0.0740  0.0709
   40POPC   C4B  297   7.144   0.112   3.616  0.3161  0.0015  0.2454
   41POPC   NC3  298   1.174   6.466   5.414  0.0220 -0.0723 -0.3389
   41POPC   PO4  299   1.340   6.664   5.713 -0.1660 -0.0285 -0.0194
   41POPC   GL1  300   1.482   7.015   5.627  0.0158 -0.0818 -0.1244
   41POPC   GL2  301   1.796   7.070   5.707  0.0222 -0.0260  0.3744
   41POPC   C1A  302   1.334   7.214   5.240  0.1153 -0.2635  0.3033
   41POPC   D2A  303   0.979   7.003   5.027  0.0950  0.2257 -0.0646
   41POPC   C3A  304   1.058   6.980   4.546 -0.0001  0.1536  0.1188
   41POPC   C4A  305   1.405   7.173   4.326 -0.1908 -0.2413 -0.1398
   41POPC   C1B  306   1.794   7.020   5.222 -0.1544  0.0170  0.1292
   41POPC   C2B  307   1.978   6.781   4.881  0.0623 -0.0000 -0.0761
   41POPC   C3B  308   2.006   6.927   4.421 -0.1824  0.0702  0.0760
   41POPC   C4B  309   1.921   7.279   4.230 -0.1380 -0.1680  0.1045
   42POPC   NC3  310   5.847   8.907   5.719 -0.0815 -0.0450  0.2999
   42POPC   PO4  311   5.859   9.307   5.717 -0.0721 -0.0986 -0.0457
   42POPC   GL1  312   5.846   9.295   5.351 -0.1738  0.0271 -0.1772
   42POPC   GL2  313   5.578   9.398   5.327 -0.0645  0.2328 -0.1287
   42POPC   C1A  314   5.993   9.126   4.990 -0.2031  0.0380 -0.0134
   42POPC   D2A  315   6.023   8.951   4.604  0.1593  0.1498 -0.2131
   42POPC   C3A  316   5.663   9.150   4.405  0.1540 -0.0386  0.0861
   42POPC   C4A  317   5.630   9.089   3.990 -0.1074  0.0469 -0.0769
   42POPC   C1B  318   5.484   9.292   4.858 -0.1301  0.2908 -0.2383
   42POPC   C2B  319   5.345   9.546   4.528 -0.0043  0.1915  0.1649
   42POPC   C3B  320   5.395   9.504   4.086 -0.3934  0.0287  0.0432
   42POPC   C4B  321   5.693   9.518   3.716  0.1448  0.4274 -0.0882
   43POPC   NC3  322   1.371   5.210   5.215 -0.1095 -0.1319  0.2227
   43POPC   PO4  323   1.630   5.440   5.438  0.1491 -0.0449  0.0791
   43POPC   GL1  324   1.719   5.511   5.059 -0.2968  0.1163 -0.0532
   43POPC   GL2  325   1.480   5.685   4.838  0.1437  0.0120  0.0845
   43POPC   C1A  326   1.697   5.251   4.679  0.1603  0.2921  0.3124
   43POPC   D2A  327   1.764   5.281   4.194 -0.1086  0.1415  0.2729
   43POPC   C3A  328   1.740   5.618   3.862 -0.0423  0.1401 -0.3186
   43POPC   C4A  329   1.753   6.104   3.786 -0.2382  0.2583  0.2393
   43POPC   C1B  330   1.837   5.844   4.838 -0.2822  0.1996 -0.1453
   43POPC   C2B  331   2.282   5.793   4.707 -0.2918 -0.2793  0.0381
   43POPC   C3B  332   2.585   5.642   4.397 -0.0400 -0.0424 -0.2700
   43POPC   C4B  333   2.657   5.342   4.069 -0.3134  0.4033  0.0215
   44POPC   NC3  334   3.595   4.945   5.746 -0.1217 -0.2174  0.2046
   44POPC   PO4  335   3.910   5.101   5.593 -0.1520 -0.1351 -0.0493
   44POPC   GL1  336   3.928   4.995   5.277  0.3575 -0.1890 -0.2282
   44POPC   GL2  337   3.819   4.746   5.242  0.3155 -0.2770  0.0084
   44POPC   C1A  338   3.723   5.059   4.861 -0.3484  0.1930  0.1325
   44POPC   D2A  339   3.903   5.213   4.466  0.2074 -0.2836 -0.1142
   44POPC   C3A  340   3.641   5.423   4.109 -0.1630 -0.3330 -0.0123
   44POPC   C4A  341   3.184   5.529   3.971 -0.1141 -0.1458  0.2645
   44POPC   C1B  342   3.902   4.550   4.776  0.1046 -0.1966 -0.1505
   44POPC   C2B  343   4.001   4.258   4.479 -0.1399  0.2079  0.3005
   44POPC   C3B  344   3.978   3.806   4.420  0.1593  0.1041  0.0535
   44POPC   C4B  345   3.864   3.362   4.421  0.0145 -0.0936 -0.1233
   45POPC   NC3  346   1.877   6.619   5.899 -0.0286 -0.1909  0.0387
   45POPC   PO4  347   2.189   6.595   6.070  0.2586 -0.0981  0.1544
   45POPC   GL1  348   2.314   6.379   5.683  0.0298 -0.2719  0.2913
   45POPC   GL2  349   2.127   6.218   5.602 -0.0697  0.1223 -0.0915
   45POPC   C1A  350   2.488   6.409   5.253  0.1487  0.2132 -0.3008
   45POPC   D2A  351   2.475   6.678   4.935  0.0968 -0.0192 -0.1181
   45POPC   C3A  352   2.453   7.023   4.597  0.2705  0.3507 -0.0213
   45POPC   C4A  353   2.481   7.227   4.205 -0.0253 -0.0271  0.2463
   45POPC   C1B  354   2.179   6.069   5.166 -0.0283  0.3458 -0.0156
   45POPC   C2B  355   2.305   6.287   4.777 -0.0042  0.0563  0.3476
   45POPC   C3B  356   2.075   6.407   4.433 -0.1171  0.0745 -0.1353
   45POPC   C4B  357   1.769   6.379   4.209  0.2629 -0.2329 -0.2470
   46POPC   NC3  358   3.952   2.261   5.232 -0.0453  0.1580  0.1650
   46POPC   PO4  359   4.365   2.294   5.216 -0.0293  0.1299  0.0796
   46POPC   GL1  360   4.346   2.532   4.947  0.0906 -0.1452  0.3922
   46POPC   GL2  361   4.160   2.276   4.781 -0.0893 -0.1974 -0.1195
   46POPC   C1A  362   4.042   2.712   4.649  0.0204 -0.1821 -0.0268
   46POPC   D2A  363   3.705   2.646   4.326  0.0536 -0.1855  0.0450
   46POPC   C3A  364   3.292   2.607   4.451 -0.0965  0.3027  0.0205
   46POPC   C4A  365   2.850   2.783   4.216  0.0583  0.1183  0.0779
   46POPC   C1B  366   4.509   2.377   4.533 -0.0566 -0.1112 -0.1117
   46POPC   C2B  367   4.513   2.551   4.113 -0.1293 -0.2415 -0.2230
   46POPC   C3B  368   4.718   2.838   3.839 -0.3687  0.1664 -0.1943
   46POPC   C4B  369   4.616   3.089   3.418  0.0390  0.2732 -0.1942
   47POPC   NC3  370   4.301   7.411   6.162 -0.0346  0.0978  0.3274
   47POPC   PO4  371   4.539   7.168   5.941 -0.3552 -0.2395 -0.0058
   47POPC   GL1  372   4.558   7.425   5.531  0.0015 -0.3804 -0.1957
   47POPC   GL2  373   4.613   7.267   5.287 -0.0722  0.3958  0.3312
   47POPC   C1A  374   4.720   7.857   5.377  0.1847 -0.0271 -0.0399
   47POPC   D2A  375   4.753   8.316   5.284  0.0420 -0.0944  0.0039
   47POPC   C3A  376   4.513   8.403   4.854  0.2230 -0.1030  0.3317
   47POPC   C4A  377   4.217   8.561   4.532  0.1397 -0.1411  0.1196
   47POPC   C1B  378   4.816   7.468   4.914  0.1871  0.0585 -0.1143
   47POPC   C2B  379   4.811   7.654   4.477 -0.1158 -0.3704  0.3074
   47POPC   C3B  380   4.747   7.998   4.228 -0.2194  0.3164 -0.2645
   47POPC   C4B  381   4.621   8.452   4.324 -0.1064  0.1033 -0.1469
   48POPC   NC3  382   2.574   2.534   5.489  0.2770  0.0562 -0.0073
   48POPC   PO4  383   2.709   2.166   5.321  0.0603 -0.1300 -0.2738
   48POPC   GL1  384   2.577   2.296   4.923 -0.0127 -0.1259  0.0103
   48POPC   GL2  385   2.504   2.037   4.802 -0.0239 -0.0724 -0.1436
   48POPC   C1A  386   2.507   2.477   4.506 -0.1000  0.1954  0.4983
   48POPC   D2A  387   2.478   2.332   4.068 -0.5036  0.0478  0.0682
   48POPC   C3A  388   2.635   2.674   3.830  0.1291  0.2008  0.1246
   48POPC   C4A  389   2.402   3.039   3.671 -0.1391 -0.0393 -0.0663
   48POPC   C1B  390   2.744   2.095   4.417  0.0771  0.3859 -0.0073
   48POPC   C2B  391   3.042   2.342   4.158  0.0203  0.0910  0.4375
   48POPC   C3B  392   3.288   2.656   3.958 -0.0313  0.0572  0.1470
   48POPC   C4B  393   3.644   2.718   3.679  0.3636  0.0119 -0.0050
   49POPC   NC3  394   1.731   0.263   6.138  0.1016  0.0037 -0.1188
   49POPC   PO4  395   1.567   0.043   5.901  0.2812  0.1604  0.3337
   49POPC   GL1  396   1.369  -0.063   5.557 -0.0230 -0.2062 -0.0868
   49POPC   GL2  397   1.590   0.042   5.395 -0.0322  0.2402  0.0115
   49POPC   C1A  398   1.392  -0.489   5.342  0.2585  0.2448  0.2676
   49POPC   D2A  399   1.414  -0.922   5.151 -0.0828 -0.0651 -0.4078
   49POPC   C3A  400   1.136  -1.009   4.780  0.2515  0.2965 -0.1417
   49POPC   C4A  401   0.979  -0.787   4.409  0.1922 -0.0871 -0.2237
   49POPC   C1B  402   1.767  -0.015   4.996  0.2951  0.1848  0.0989
   49POPC   C2B  403   1.968  -0.234   4.660 -0.0407  0.1312 -0.0004
   49POPC   C3B  404   1.921  -0.530   4.307 -0.4061 -0.0233  0.1065
   49POPC   C4B  405   1.800  -0.843   4.031 -0.0113  0.1543 -0.0371
   50POPC   NC3  406   1.866   4.295   5.204  0.0552  0.1618  0.0679
   50POPC   PO4  407   1.573   4.292   5.439  0.1464  0.0132 -0.3110
   50POPC   GL1  408   1.474   4.431   5.034 -0.5331  0.3763  0.3363
   50POPC   GL2  409   1.226   4.556   5.171  0.0394 -0.0009  0.1558
   50POPC   C1A  410   1.688   4.359   4.631 -0.0038  0.1969 -0.0574
   50POPC   D2A  411   1.761   4.421   4.145  0.0751  0.1619  0.0908
   50POPC   C3A  412   2.087   4.457   3.847  0.1259 -0.1018  0.0047
   50POPC   C4A  413   2.419   4.235   3.625  0.2188 -0.1868  0.0764
   50POPC   C1B  414   1.365   4.767   4.778  0.0325 -0.0688 -0.0246
   50POPC   C2B  415   1.490   4.851   4.322 -0.0974 -0.1261 -0.0176
   50POPC   C3B  416   1.793   4.863   3.939  0.0759 -0.1498  0.2088
   50POPC   C4B  417   2.083   4.846   3.585 -0.1310 -0.7386 -0.0496
   51POPC   NC3  418   1.617   5.983   5.290  0.1890 -0.0152  0.0095
   51POPC   PO4  419   1.583   6.260   5.590 -0.0136  0.0232 -0.0963
   51POPC   GL1  420   1.664   6.608   5.382 -0.4414 -0.1039  0.4040
   51POPC   GL2  421   1.828   6.481   5.222 -0.3700  0.0710  0.2131
   51POPC   C1A  422   1.437   6.663   4.968  0.1100  0.1822 -0.1810
   51POPC   D2A  423   1.540   6.711   4.491 -0.1199  0.0355 -0.4185
   51POPC   C3A  424   1.436   6.738   4.049 -0.1175  0.2471 -0.1488
   51POPC   C4A  425   1.238   6.887   3.719  0.0368 -0.1183 -0.0657
   51POPC   C1B  426   1.749   6.343   4.812 -0.0789 -0.0895  0.3221
   51POPC   C2B  427   1.404   6.219   4.533 -0.0955  0.0826  0.0793
   51POPC   C3B  428   1.145   6.369   4.084 -0.2266  0.2769 -0.3738
   51POPC   C4B  429   1.149   6.249   3.639 -0.1910 -0.2017 -0.4067
   52POPC   NC3  430   6.382   6.425   5.514  0.2135 -0.0150 -0.1488
   52POPC   PO4  431   6.711   6.184   5.436 -0.0513  0.0208 -0.1668
   52POPC   GL1  432   7.007   6.192   5.070 -0.0664  0.1688  0.1025
   52POPC   GL2  433   6.803   6.432   5.024  0.3159 -0.0799  0.0673
   52POPC   C1A  434   7.066   6.269   4.616 -0.0831 -0.0838  0.2327
   52POPC   D2A  435   7.057   6.490   4.168  0.3114  0.2432 -0.0571
   52POPC   C3A  436   6.684   6.298   3.894  0.0653  0.2562 -0.1454
   52POPC   C4A  437   6.251   6.202   3.795 -0.1526 -0.1401 -0.2161
   52POPC   C1B  438   6.613   6.085   4.741  0.0585  0.0416 -0.1624
   52POPC   C2B  439   6.413   6.036   4.300  0.0135 -0.0040 -0.0215
   52POPC   C3B  440   6.097   6.363   4.214  0.0756 -0.0670 -0.1282
   52POPC   C4B  441   5.853   6.780   4.146  0.0381 -0.0392  0.5458
   53POPC   NC3  442   7.630   6.022   5.102 -0.2198 -0.0969 -0.3971
   53POPC   PO4  443   7.477   5.700   5.288 -0.0201 -0.0380  0.0527
   53POPC   GL1  444   7.520   5.621   4.898  0.3327 -0.3384  0.4196
   53POPC   GL2  445   7.718   5.480   4.700 -0.2486  0.1389  0.0492
   53POPC   C1A  446   7.447   5.939   4.583 -0.0651 -0.0527  0.1642
   53POPC   D2A  447   7.528   6.376   4.485 -0.2236 -0.0746 -0.3061
   53POPC   C3A  448   7.497   6.783   4.226 -0.2140 -0.0217 -0.2817
   53POPC   C4A  449   7.386   6.772   3.793 -0.1947 -0.2191  0.1058
   53POPC   C1B  450   7.409   5.437   4.408 -0.0053  0.1420  0.0657
   53POPC   C2B  451   6.971   5.308   4.338 -0.2557  0.1646 -0.3025
   53POPC   C3B  452   6.552   5.065   4.284  0.3127 -0.1766  0.1158
   53POPC   C4B  453   6.455   4.819   3.904  0.0170  0.3343 -0.0294
   54POPC   NC3  454   3.657   6.980   5.472 -0.1271  0.1425 -0.0301
   54POPC   PO4  455   3.773   6.958   5.864 -0.0616 -0.0131  0.1602
   54POPC   GL1  456   4.133   6.920   5.636  0.2337  0.1726 -0.1187
   54POPC   GL2  457   4.336   6.737   5.620  0.0526 -0.1198  0.0702
   54POPC   C1A  458   4.181   7.110   5.229  0.2419  0.2130  0.0719
   54POPC   D2A  459   3.823   7.330   4.933 -0.0449 -0.1301  0.2397
   54POPC   C3A  460   3.843   7.093   4.519 -0.1686 -0.1342 -0.1948
   54POPC   C4A  461   3.601   6.848   4.204 -0.1275 -0.0808  0.4015
   54POPC   C1B  462   4.113   6.595   5.262 -0.4334  0.2122 -0.1757
   54POPC   C2B  463   3.920   6.803   4.884 -0.4067 -0.3131 -0.1947
   54POPC   C3B  464   3.909   6.584   4.437 -0.0311 -0.1607 -0.1244
   54POPC   C4B  465   3.510   6.379   4.284 -0.0697  0.3093  0.2383
   55POPC   NC3  466   6.094   7.480   6.239 -0.1306 -0.1166 -0.0481
   55POPC   PO4  467   6.093   7.377   5.852 -0.0549 -0.1934  0.2504
   55POPC   GL1  468   6.273   7.516   5.543 -0.2297 -0.1347  0.0622
   55POPC   GL2  469   6.543   7.434   5.551  0.0880 -0.0426 -0.0344
   55POPC   C1A  470   6.498   7.858   5.342  0.1261  0.3401  0.3170
   55POPC   D2A  471   6.375   8.212   5.063 -0.2123  0.0896 -0.3942
   55POPC   C3A  472   6.275   8.332   4.603  0.1261  0.0162 -0.0830
   55POPC   C4A  473   6.313   8.681   4.235 -0.1519 -0.0667 -0.1930
   55POPC   C1B  474   6.414   7.312   5.112 -0.1954 -0.0519 -0.2880
   55POPC   C2B  475   6.489   7.321   4.645 -0.2339  0.5003  0.1027
   55POPC   C3B  476   6.678   7.537   4.290 -0.0877  0.2154 -0.3493
   55POPC   C4B  477   6.645   7.985   4.156 -0.1492  0.0260  0.0451
   56POPC   NC3  478   4.649   8.728   5.638  0.1518  0.0800 -0.1929
   56POPC   PO4  479   4.283   8.874   5.740 -0.1145  0.0487 -0.0552
   56POPC   GL1  480   4.338   8.907   5.317 -0.1943  0.2007 -0.1116
   56POPC   GL2  481   4.202   8.642   5.186 -0.0205 -0.0686 -0.0282
   56POPC   C1A  482   4.631   9.163   5.079  0.0549 -0.2532  0.2528
   56POPC   D2A  483   5.024   9.145   4.788  0.2878  0.0826 -0.2053
   56POPC   C3A  484   4.995   9.220   4.352 -0.1023 -0.4918  0.0956
   56POPC   C4A  485   5.069   8.976   3.981 -0.1463 -0.2836 -0.1084
   56POPC   C1B  486   3.823   8.513   4.917  0.3607  0.0612 -0.0037
   56POPC   C2B  487   3.843   8.213   4.564 -0.3730  0.0456 -0.0652
   56POPC   C3B  488   3.521   7.864   4.373  0.3454  0.2546 -0.0224
   56POPC   C4B  489   3.295   7.657   3.963 -0.3576 -0.0019  0.1733
   57POPC   NC3  490   5.816   4.476   5.384 -0.1146  0.2919 -0.0455
   57POPC   PO4  491   5.781   4.073   5.457 -0.1076  0.0412  0.1865
   57POPC   GL1  492   5.839   4.085   5.095  0.0900  0.2375  0.1142
   57POPC   GL2  493   5.726   4.291   4.932  0.0656 -0.0087  0.1865
   57POPC   C1A  494   6.030   3.954   4.695 -0.0044 -0.0336 -0.0452
   57POPC   D2A  495   6.407   4.002   4.418 -0.1817  0.1713 -0.0030
   57POPC   C3A  496   6.382   3.845   3.981  0.0038 -0.2093  0.1477
   57POPC   C4A  497   6.415   3.492   3.698 -0.2349 -0.1906 -0.1935
   57POPC   C1B  498   5.672   4.418   4.490 -0.0322  0.0917 -0.0075
   57POPC   C2B  499   5.588   4.638   4.087 -0.3593  0.0103  0.0562
   57POPC   C3B  500   5.376   4.857   3.731 -0.4330 -0.1666 -0.0485
   57POPC   C4B  501   4.932   4.634   3.599 -0.0872 -0.1838 -0.0402
   58POPC   NC3  502   5.997   1.203   6.062  0.0897  0.2636  0.0529
   58POPC   PO4  503   6.190   1.001   5.793  0.0654  0.2214 -0.1173
   58POPC   GL1  504   6.226   1.221   5.384 -0.4206 -0.0915  0.2834
   58POPC   GL2  505   6.398   1.428   5.308  0.3909 -0.2915  0.1395
   58POPC   C1A  506   6.008   1.185   4.961  0.0069  0.4998 -0.2907
   58POPC   D2A  507   6.161   1.089   4.538 -0.0102 -0.2475  0.1371
   58POPC   C3A  508   6.458   0.742   4.429 -0.1874  0.0321  0.2364
   58POPC   C4A  509   6.842   0.422   4.417 -0.0181 -0.2862 -0.0487
   58POPC   C1B  510   6.221   1.615   4.881 -0.0527 -0.0290 -0.1204
   58POPC   C2B  511   6.232   1.687   4.416  0.3139 -0.2199  0.1703
   58POPC   C3B  512   6.489   1.656   4.009 -0.1555 -0.0615 -0.2679
   58POPC   C4B  513   6.852   1.588   3.700  0.0541  0.1246 -0.0902
   59POPC   NC3  514   6.596   3.760   5.517 -0.2644 -0.1247  0.0212
   59POPC   PO4  515   6.594   3.416   5.320  0.2442 -0.0039  0.3397
   59POPC   GL1  516   6.312   3.556   5.150  0.1196 -0.4129  0.4833
   59POPC   GL2  517   6.272   3.820   5.094  0.1375  0.2074 -0.0914
   59POPC   C1A  518   6.208   3.474   4.737  0.1728  0.3887 -0.0864
   59POPC   D2A  519   6.059   3.600   4.309 -0.1271 -0.0949 -0.0565
   59POPC   C3A  520   6.224   3.287   4.082 -0.1678  0.1497 -0.1092
   59POPC   C4A  521   6.572   3.068   3.838  0.4044 -0.2495  0.2078
   59POPC   C1B  522   6.597   3.713   4.741  0.3152 -0.3562 -0.1839
   59POPC   C2B  523   6.652   3.555   4.297 -0.1652  0.2074  0.1755
   59POPC   C3B  524   6.913   3.602   3.930 -0.3600  0.1231 -0.1898
   59POPC   C4B  525   7.218   3.893   3.779  0.0948 -0.5226 -0.2400
   60POPC   NC3  526   7.253   2.484   5.099  0.0089  0.1054  0.2756
   60POPC   PO4  527   6.971   2.253   5.228  0.1034 -0.0658  0.1682
   60POPC   GL1  528   6.956   2.027   4.869  0.3795  0.6329 -0.2119
   60POPC   GL2  529   6.951   2.275   4.723 -0.4055 -0.0459 -0.2277
   60POPC   C1A  530   6.779   1.869   4.406 -0.0025  0.2544  0.0386
   60POPC   D2A  531   6.849   1.974   3.984  0.0463 -0.2184  0.2110
   60POPC   C3A  532   7.138   2.290   3.733 -0.0860  0.2427  0.1666
   60POPC   C4A  533   7.014   2.710   3.639  0.1098 -0.1938 -0.0076
   60POPC   C1B  534   6.985   2.742   4.757  0.0280 -0.2745 -0.0499
   60POPC   C2B  535   7.030   3.214   4.740 -0.3156 -0.0188  0.1365
   60POPC   C3B  536   7.344   3.431   4.388  0.0395  0.1770  0.0331
   60POPC   C4B  537   7.663   3.667   4.092 -0.0214 -0.2563  0.1941
   61POPC   NC3  538   6.431   3.065   5.009 -0.1958 -0.4670  0.1348
   61POPC   PO4  539   6.374   2.861   5.342  0.1780 -0.0236 -0.1000
   61POPC   GL1  540   6.137   2.583   5.108 -0.3188  0.0479  0.0747
   61POPC   GL2  541   6.079   2.659   4.832 -0.1051 -0.0626  0.2882
   61POPC   C1A  542   5.704   2.502   5.042  0.0099  0.0817 -0.2178
   61POPC   D2A  543   5.324   2.561   4.833 -0.0659  0.2583  0.1497
   61POPC   C3A  544   5.277   2.649   4.392 -0.3685  0.0925  0.3834
   61POPC   C4A  545   4.968   2.937   4.340  0.2771 -0.1330  0.1178
   61POPC   C1B  546   6.012   2.494   4.444  0.0302  0.1634  0.0003
   61POPC   C2B  547   5.969   2.324   4.034 -0.0928 -0.0860  0.4053
   61POPC   C3B  548   6.222   2.285   3.676  0.0256 -0.0444 -0.0013
   61POPC   C4B  549   6.060   2.459   3.291 -0.0442 -0.2844  0.1246
   62POPC   NC3  550   7.864   4.420   5.631 -0.1563 -0.2417 -0.1279
   62POPC   PO4  551   7.543   4.479   5.427 -0.1969  0.3764  0.2806
   62POPC   GL1  552   7.394   4.769   5.121 -0.1998  0.3640  0.1898
   62POPC   GL2  553   7.537   4.595   4.874 -0.1996  0.1752 -0.1963
   62POPC   C1A  554   7.416   5.104   4.889 -0.4075 -0.4235  0.0519
   62POPC   D2A  555   7.077   5.386   4.901 -0.3604 -0.2980  0.0911
   62POPC   C3A  556   7.015   5.759   4.683 -0.1051  0.1164  0.1317
   62POPC   C4A  557   6.991   5.827   4.226 -0.0323  0.0636  0.2052
   62POPC   C1B  558   7.659   4.631   4.437  0.3769  0.3057  0.2669
   62POPC   C2B  559   7.795   4.475   4.017  0.0733  0.0944  0.2689
   62POPC   C3B  560   7.765   4.250   3.613 -0.2712 -0.0199  0.0661
   62POPC   C4B  561   8.061   4.119   3.316 -0.1069 -0.3389  0.0112
   63POPC   NC3  562   5.233   7.709   5.797 -0.1214 -0.0401 -0.0911
   63POPC   PO4  563   5.273   7.959   6.095  0.0702  0.2435 -0.0548
   63POPC   GL1  564   5.609   8.018   5.722 -0.1962 -0.2166  0.0146
   63POPC   GL2  565   5.747   7.738   5.616  0.5101 -0.1106  0.1034
   63POPC   C1A  566   5.459   8.086   5.282  0.2291  0.2615 -0.1093
   63POPC   D2A  567   5.080   8.010   5.028 -0.3442  0.0887  0.1195
   63POPC   C3A  568   4.976   8.305   4.728  0.2387 -0.1782  0.3415
   63POPC   C4A  569   5.033   8.678   4.520 -0.2936 -0.3971  0.1107
   63POPC   C1B  570   5.947   7.557   5.235  0.2274 -0.1884 -0.1336
   63POPC   C2B  571   6.234   7.694   4.901  0.1592  0.1138 -0.2524
   63POPC   C3B  572   6.179   7.760   4.426  0.3361  0.0464  0.0980
   63POPC   C4B  573   6.115   8.138   4.104  0.0611 -0.2740 -0.0233
   64POPC   NC3  574   1.033   6.707   6.045 -0.2181  0.1395  0.1311
   64POPC   PO4  575   1.242   7.003   6.068 -0.1283  0.0743  0.0084
   64POPC   GL1  576   0.974   7.042   5.686  0.0009  0.1833 -0.0165
   64POPC   GL2  577   0.769   6.774   5.566 -0.1397  0.4245  0.1280
   64POPC   C1A  578   0.797   7.315   5.417 -0.1706  0.1340  0.0336
   64POPC   D2A  579   0.641   7.490   5.009 -0.1906 -0.3092 -0.0646
   64POPC   C3A  580   0.790   7.436   4.575 -0.1097  0.1164 -0.1658
   64POPC   C4A  581   1.035   7.580   4.227 -0.1569  0.0457 -0.0879
   64POPC   C1B  582   0.647   6.456   5.188 -0.1775  0.2979  0.0077
   64POPC   C2B  583   0.555   6.194   4.794 -0.2589  0.1422  0.1109
   64POPC   C3B  584   0.500   5.977   4.448  0.0375  0.5864 -0.0399
   64POPC   C4B  585   0.665   5.708   4.105 -0.3055 -0.0418 -0.0456
   65POPC   NC3  586   6.767   0.394   5.731  0.0368  0.2641 -0.0597
   65POPC   PO4  587   6.655   0.772   5.853  0.0477 -0.4836 -0.4019
   65POPC   GL1  588   6.735   0.779   5.521  0.0491 -0.2141 -0.0395
   65POPC   GL2  589   6.527   0.854   5.329 -0.2222 -0.0455  0.2213
   65POPC   C1A  590   6.842   1.198   5.284 -0.1247  0.0959  0.0431
   65POPC   D2A  591   6.764   1.489   4.864 -0.1297  0.0887  0.3141
   65POPC   C3A  592   6.740   1.306   4.424 -0.2889 -0.0738  0.0428
   65POPC   C4A  593   6.387   1.189   4.066  0.2622  0.0964 -0.2192
   65POPC   C1B  594   6.323   0.541   5.101  0.1623  0.1273 -0.0372
   65POPC   C2B  595   6.385   0.308   4.727 -0.0616  0.2718  0.0343
   65POPC   C3B  596   6.251   0.298   4.307 -0.1967  0.2121 -0.2055
   65POPC   C4B  597   6.135   0.173   3.898  0.4154  0.1216  0.2943
   66POPC   NC3  598   7.594   1.458   5.926 -0.0471  0.0977 -0.1343
   66POPC   PO4  599   7.929   1.497   5.704  0.1103  0.0586  0.0275
   66POPC   GL1  600   7.930   1.795   5.353 -0.2049 -0.1094  0.0757
   66POPC   GL2  601   7.854   1.520   5.190 -0.2968 -0.0435  0.3650
   66POPC   C1A  602   7.593   1.969   5.090  0.1006  0.1433 -0.4376
   66POPC   D2A  603   7.563   2.173   4.651  0.0613  0.1293  0.2102
   66POPC   C3A  604   7.441   2.072   4.205  0.0178  0.0905  0.2753
   66POPC   C4A  605   7.341   1.807   3.880 -0.1376  0.2958  0.2276
   66POPC   C1B  606   7.921   1.297   4.795 -0.3298  0.3113  0.0349
   66POPC   C2B  607   8.126   1.234   4.353  0.1103  0.0774  0.1039
   66POPC   C3B  608   8.215   1.340   3.902  0.2109 -0.4378  0.1363
   66POPC   C4B  609   8.629   1.315   3.660  0.0980 -0.3037  0.1238
   67POPC   NC3  610   2.248   2.555   5.932  0.0692 -0.1098  0.1852
   67POPC   PO4  611   2.218   2.906   5.708  0.0494  0.2942  0.2312
   67POPC   GL1  612   2.178   3.131   5.394  0.0200  0.0358 -0.0034
   67POPC   GL2  613   2.328   2.892   5.251  0.3267  0.1365  0.0521
   67POPC   C1A  614   2.045   3.240   4.939 -0.1089  0.1905 -0.1021
   67POPC   D2A  615   1.855   3.099   4.486 -0.1881 -0.0190  0.0481
   67POPC   C3A  616   1.749   3.004   4.034  0.0268  0.2757 -0.2128
   67POPC   C4A  617   1.554   2.542   3.885  0.1378 -0.0977  0.0965
   67POPC   C1B  618   2.426   2.946   4.800 -0.1556 -0.0270  0.0262
   67POPC   C2B  619   2.452   3.096   4.351 -0.0650 -0.0711 -0.1407
   67POPC   C3B  620   2.237   3.315   4.036 -0.2429  0.0097  0.0771
   67POPC   C4B  621   2.017   3.335   3.599  0.1449 -0.1944  0.0683
   68POPC   NC3  622   0.488   1.876   5.295 -0.0416  0.0746 -0.0880
   68POPC   PO4  623   0.493   1.592   5.044 -0.0060 -0.2296  0.1692
   68POPC   GL1  624   0.670   1.537   4.663 -0.2006 -0.2111 -0.2172
   68POPC   GL2  625   0.802   1.266   4.727  0.0133  0.0735 -0.2485
   68POPC   C1A  626   0.642   1.365   4.252  0.0385 -0.0238  0.0992
   68POPC   D2A  627   0.860   1.267   3.876 -0.0434  0.2126  0.0585
   68POPC   C3A  628   0.685   1.187   3.479  0.0234  0.2881  0.3025
   68POPC   C4A  629   0.703   1.116   3.106  0.1890  0.1187  0.0402
   68POPC   C1B  630   0.922   0.977   4.458  0.2917  0.3681  0.1642
   68POPC   C2B  631   1.222   0.980   4.111  0.3084  0.0188 -0.0359
   68POPC   C3B  632   1.563   0.687   4.043  0.0170 -0.0205  0.2512
   68POPC   C4B  633   1.835   0.381   3.832 -0.0285 -0.2204 -0.3738
   69POPC   NC3  634   7.638   0.554   5.572 -0.1233 -0.0237 -0.2409
   69POPC   PO4  635   7.702   0.158   5.587  0.0933  0.2660 -0.1037
   69POPC   GL1  636   7.385   0.020   5.287 -0.0504 -0.1598 -0.1733
   69POPC   GL2  637   7.415   0.386   5.088  0.0220  0.1961 -0.0858
   69POPC   C1A  638   6.979   0.089   5.339 -0.3236  0.0142  0.1302
   69POPC   D2A  639   6.522   0.150   5.305 -0.1013  0.3470 -0.2677
   69POPC   C3A  640   6.202  -0.217   5.254  0.1038  0.0135  0.1209
   69POPC   C4A  641   5.950  -0.400   4.897 -0.1299  0.0138  0.1078
   69POPC   C1B  642   7.246   0.523   4.688 -0.0122  0.0970 -0.2784
   69POPC   C2B  643   7.182   0.740   4.304  0.2209 -0.0302 -0.0592
   69POPC   C3B  644   6.792   0.800   4.033 -0.1548 -0.0945  0.0646
   69POPC   C4B  645   6.405   0.609   3.933 -0.2253 -0.1540  0.1895
   70POPC   NC3  646   7.098   6.093   5.722  0.3838 -0.3644 -0.2134
   70POPC   PO4  647   7.303   6.256   5.399  0.1099 -0.1045 -0.2831
   70POPC   GL1  648   7.372   6.381   4.987 -0.2583  0.1229 -0.0730
   70POPC   GL2  649   7.627   6.558   4.944  0.0473 -0.1012 -0.0405
   70POPC   C1A  650   7.125   6.722   4.757  0.2350 -0.0742 -0.1640
   70POPC   D2A  651   6.998   7.123   4.540  0.2572 -0.0756 -0.1427
   70POPC   C3A  652   6.774   7.002   4.138  0.1310  0.3488  0.1172
   70POPC   C4A  653   6.451   6.728   3.999 -0.1273 -0.0114 -0.1601
   70POPC   C1B  654   7.566   6.930   4.699 -0.1042  0.2142 -0.1810
   70POPC   C2B  655   7.444   7.338   4.496  0.0039  0.1352  0.0531
   70POPC   C3B  656   7.155   7.681   4.444  0.2164 -0.2990  0.1551
   70POPC   C4B  657   7.231   8.032   4.166  0.0342 -0.2843 -0.5766
   71POPC   NC3  658   6.886   7.116   5.849  0.0557  0.3967  0.2161
   71POPC   PO4  659   7.060   7.439   5.821  0.0734  0.0295 -0.1097
   71POPC   GL1  660   7.068   7.378   5.435  0.1579  0.6132  0.0909
   71POPC   GL2  661   7.000   7.637   5.366 -0.1032 -0.0437 -0.2966
   71POPC   C1A  662   6.829   7.071   5.231 -0.2579  0.1195  0.1645
   71POPC   D2A  663   6.445   6.795   5.131  0.2695 -0.4414  0.1758
   71POPC   C3A  664   6.648   6.821   4.704  0.1669  0.4854  0.0771
   71POPC   C4A  665   6.566   6.508   4.384 -0.0155  0.0955 -0.0194
   71POPC   C1B  666   7.207   7.820   5.023  0.0173 -0.1947  0.0778
   71POPC   C2B  667   7.269   8.109   4.702  0.1045 -0.0325 -0.2021
   71POPC   C3B  668   7.325   8.509   4.465  0.1417  0.0392 -0.3205
   71POPC   C4B  669   7.706   8.740   4.424  0.2708 -0.2190  0.0209
   72POPC   NC3  670   2.896   5.612   5.781  0.0494 -0.0169 -0.3624
   72POPC   PO4  671   3.140   5.798   6.065  0.2167 -0.3319 -0.0003
   72POPC   GL1  672   3.301   5.791   5.677 -0.1858  0.4528 -0.1134
   72POPC   GL2  673   3.134   6.031   5.544  0.1670  0.0503 -0.4079
   72POPC   C1A  674   3.204   5.613   5.257  0.0483 -0.3730  0.2034
   72POPC   D2A  675   3.378   5.415   4.885 -0.0026  0.1420  0.0816
   72POPC   C3A  676   3.210   5.218   4.499  0.1761  0.0047  0.1732
   72POPC   C4A  677   3.326   5.039   4.154  0.0941 -0.4158 -0.1879
   72POPC   C1B  678   2.896   6.136   5.163 -0.1898  0.3194  0.1174
   72POPC   C2B  679   2.731   6.052   4.721 -0.1900  0.0895  0.0359
   72POPC   C3B  680   2.566   6.151   4.275 -0.0552  0.1663  0.0219
   72POPC   C4B  681   2.506   6.324   3.864 -0.3699  0.3125 -0.1234
   73POPC   NC3  682   2.656   4.254   5.590 -0.0761  0.3806 -0.3339
   73POPC   PO4  683   2.558   3.882   5.716  0.0795 -0.0629  0.1140
   73POPC   GL1  684   2.433   3.956   5.330 -0.1400  0.0732 -0.3607
   73POPC   GL2  685   2.685   3.938   5.180 -0.0822  0.2241  0.0653
   73POPC   C1A  686   2.141   3.723   4.979 -0.3240  0.1697  0.2114
   73POPC   D2A  687   2.216   3.524   4.522  0.1600  0.1461  0.0275
   73POPC   C3A  688   2.602   3.597   4.222  0.2371  0.0509 -0.1951
   73POPC   C4A  689   2.939   3.818   4.405  0.1504  0.2646  0.4310
   73POPC   C1B  690   3.040   3.956   4.873  0.0941  0.0092  0.2091
   73POPC   C2B  691   3.095   4.258   4.563  0.0362  0.0007 -0.1637
   73POPC   C3B  692   2.977   4.478   4.159  0.0651 -0.2159 -0.1485
   73POPC   C4B  693   3.080   4.738   3.780 -0.0444  0.3047  0.0937
   74POPC   NC3  694   5.693   5.482   5.208 -0.1403  0.1785 -0.0909
   74POPC   PO4  695   5.441   5.274   5.412  0.4495 -0.1750 -0.0642
   74POPC   GL1  696   5.276   5.550   5.210  0.0312  0.1032  0.0771
   74POPC   GL2  697   5.318   5.766   5.450  0.2276 -0.0614 -0.2560
   74POPC   C1A  698   5.395   5.833   4.892 -0.3373 -0.0886  0.0814
   74POPC   D2A  699   5.520   5.773   4.437 -0.0854  0.0992 -0.0860
   74POPC   C3A  700   5.558   5.773   3.970 -0.3783 -0.0712 -0.1973
   74POPC   C4A  701   5.256   5.968   3.605 -0.2096  0.2702  0.0271
   74POPC   C1B  702   4.992   5.890   5.154 -0.0141  0.2524  0.0225
   74POPC   C2B  703   4.573   5.978   4.953  0.0483  0.2978 -0.2287
   74POPC   C3B  704   4.211   5.776   4.721  0.0412 -0.0188 -0.3718
   74POPC   C4B  705   3.747   5.640   4.699 -0.2230 -0.1192  0.1267
   75POPC   NC3  706   8.505   8.441   6.040 -0.0436  0.2356 -0.0297
   75POPC   PO4  707   8.571   8.621   5.770  0.1613  0.0456  0.0397
   75POPC   GL1  708   8.647   8.576   5.394 -0.0600  0.1138  0.3692
   75POPC   GL2  709   8.696   8.308   5.287  0.1134 -0.2059  0.3102
   75POPC   C1A  710   8.299   8.746   5.163  0.1123 -0.2273  0.0569
   75POPC   D2A  711   7.919   8.784   4.879  0.1459 -0.2969  0.0322
   75POPC   C3A  712   7.812   8.323   4.759 -0.2140  0.0577 -0.3837
   75POPC   C4A  713   7.670   8.113   4.360  0.1026 -0.2955  0.1859
   75POPC   C1B  714   8.518   8.392   4.865 -0.1336 -0.0439 -0.0314
   75POPC   C2B  715   8.210   8.549   4.593  0.1334  0.2047  0.1364
   75POPC   C3B  716   8.129   8.330   4.202 -0.0594 -0.1326 -0.0177
   75POPC   C4B  717   7.765   8.483   4.026  0.0942  0.2629  0.1273
   76POPC   NC3  718   1.299   1.328   6.052 -0.2665 -0.0802  0.4234
   76POPC   PO4  719   1.437   0.957   5.881  0.2182 -0.0021  0.3186
   76POPC   GL1  720   1.538   0.915   5.508  0.2190  0.0408 -0.3555
   76POPC   GL2  721   1.719   0.862   5.308  0.1176  0.3796 -0.0926
   76POPC   C1A  722   1.289   1.077   5.109 -0.1210 -0.2371  0.4544
   76POPC   D2A  723   1.321   1.118   4.662  0.0337  0.2266 -0.1139
   76POPC   C3A  724   1.641   1.179   4.373 -0.1925 -0.0041  0.0950
   76POPC   C4A  725   1.901   1.120   3.997 -0.1885  0.2215  0.1119
   76POPC   C1B  726   1.557   0.456   5.065 -0.1137 -0.1531  0.0258
   76POPC   C2B  727   1.414   0.193   4.684 -0.0927 -0.1778  0.0500
   76POPC   C3B  728   1.497  -0.171   4.373 -0.1425 -0.1553 -0.1238
   76POPC   C4B  729   1.423  -0.555   4.191 -0.0029 -0.0105 -0.1702
   77POPC   NC3  730   0.619   1.123   5.253  0.3238  0.0685 -0.1253
   77POPC   PO4  731   0.372   0.824   5.264 -0.0141 -0.0854  0.1598
   77POPC   GL1  732   0.231   0.616   4.999  0.2440 -0.5428  0.0593
   77POPC   GL2  733  -0.017   0.800   4.908  0.2843 -0.1869  0.0539
   77POPC   C1A  734   0.324   0.487   4.550 -0.2589 -0.0888 -0.2191
   77POPC   D2A  735   0.209   0.412   4.112 -0.2320  0.1938 -0.1055
   77POPC   C3A  736   0.293   0.583   3.664 -0.1598  0.4620  0.1466
   77POPC   C4A  737   0.326   0.830   3.297 -0.2101 -0.1627 -0.0986
   77POPC   C1B  738  -0.019   0.897   4.493  0.4218  0.2929  0.0079
   77POPC   C2B  739  -0.117   0.801   4.040  0.0425 -0.4202 -0.0190
   77POPC   C3B  740  -0.490   0.636   3.741 -0.0051  0.3373 -0.0848
   77POPC   C4B  741  -0.845   0.599   3.440  0.1849  0.0880 -0.1629
   78POPC   NC3  742   3.958   4.226   5.166  0.2279 -0.2801 -0.0830
   78POPC   PO4  743   3.951   4.082   5.532  0.2197  0.0202 -0.2657
   78POPC   GL1  744   3.565   3.907   5.409  0.2282 -0.1181  0.0980
   78POPC   GL2  745   3.550   3.932   5.143  0.2397 -0.1513  0.3246
   78POPC   C1A  746   3.449   3.447   5.263  0.1009 -0.3275 -0.1576
   78POPC   D2A  747   3.762   3.127   5.277  0.2421 -0.2142  0.2414
   78POPC   C3A  748   4.073   3.203   4.918  0.2426 -0.2296  0.1988
   78POPC   C4A  749   4.341   3.436   4.638 -0.1004 -0.1271 -0.1497
   78POPC   C1B  750   3.570   4.008   4.627  0.1221  0.0728  0.1437
   78POPC   C2B  751   3.391   4.073   4.236 -0.2936 -0.1808 -0.0594
   78POPC   C3B  752   3.205   4.146   3.889  0.0195  0.1119  0.0582
   78POPC   C4B  753   2.897   4.071   3.660  0.0836 -0.1946 -0.1417
   79POPC   NC3  754   8.447   1.193   5.135  0.0691  0.0436 -0.0180
   79POPC   PO4  755   8.481   0.800   5.268  0.1992  0.2527 -0.1226
   79POPC   GL1  756   8.289   0.770   4.955 -0.2548 -0.3880  0.0010
   79POPC   GL2  757   8.533   0.846   4.732 -0.0129 -0.2290  0.2517
   79POPC   C1A  758   8.037   0.771   4.547  0.2243  0.0741 -0.2249
   79POPC   D2A  759   7.673   0.859   4.251  0.0141 -0.2404  0.2248
   79POPC   C3A  760   7.415   0.852   3.888 -0.2534 -0.0731 -0.0392
   79POPC   C4A  761   7.134   0.615   3.625 -0.1177  0.0624  0.2347
   79POPC   C1B  762   8.779   0.444   4.651 -0.1072  0.4206 -0.0056
   79POPC   C2B  763   9.022   0.099   4.503 -0.1917  0.0906 -0.0326
   79POPC   C3B  764   9.459  -0.010   4.344 -0.1181  0.2630  0.0713
   79POPC   C4B  765   9.822  -0.175   4.058 -0.1464 -0.0058 -0.0683
   80POPC   NC3  766   0.792   5.634   5.612 -0.0045 -0.0628  0.0545
   80POPC   PO4  767   0.674   5.296   5.402  0.0694  0.0468 -0.1300
   80POPC   GL1  768   0.255   5.240   5.221 -0.0236 -0.1096 -0.3509
   80POPC   GL2  769   0.119   5.460   5.075  0.0904  0.0520 -0.3541
   80POPC   C1A  770   0.137   4.956   4.817 -0.2145  0.2487  0.0146
   80POPC   D2A  771  -0.109   5.042   4.439 -0.0664 -0.0668  0.3833
   80POPC   C3A  772   0.052   5.020   4.032 -0.0302 -0.2378  0.0727
   80POPC   C4A  773  -0.161   5.210   3.645  0.1143  0.1327 -0.0140
   80POPC   C1B  774   0.117   5.503   4.595 -0.1095 -0.0339  0.3321
   80POPC   C2B  775   0.199   5.523   4.100  0.0197 -0.1266 -0.1869
   80POPC   C3B  776   0.366   5.785   3.745  0.2659 -0.0422 -0.1779
   80POPC   C4B  777   0.302   5.845   3.277 -0.0938 -0.2799  0.1237
   81POPC   NC3  778   6.513   5.115   4.788  0.1571 -0.0238 -0.0914
   81POPC   PO4  779   6.361   5.137   5.154 -0.1941 -0.2082  0.1252
   81POPC   GL1  780   6.031   5.254   5.019  0.0054 -0.0614  0.0668
   81POPC   GL2  781   6.127   5.570   4.781 -0.1374  0.1780 -0.3564
   81POPC   C1A  782   5.624   5.376   4.734  0.0565  0.3220  0.0214
   81POPC   D2A  783   5.183   5.447   4.622  0.1971  0.0648  0.3860
   81POPC   C3A  784   5.010   5.598   4.186 -0.2961 -0.0544 -0.0745
   81POPC   C4A  785   5.144   6.020   4.109 -0.1110  0.2365 -0.2165
   81POPC   C1B  786   6.487   5.538   4.491 -0.0462  0.0755  0.2554
   81POPC   C2B  787   6.323   5.481   4.021  0.2172 -0.0052  0.0055
   81POPC   C3B  788   6.226   5.693   3.583  0.1073  0.1506 -0.1593
   81POPC   C4B  789   6.439   6.006   3.244 -0.0194  0.0019 -0.0622
   82POPC   NC3  790   2.616   6.746   5.940 -0.2611 -0.0681 -0.0277
   82POPC   PO4  791   2.902   6.998   5.795 -0.3111 -0.0488  0.2782
   82POPC   GL1  792   2.600   7.129   5.584  0.2829 -0.1932 -0.2491
   82POPC   GL2  793   2.663   7.062   5.324  0.4522  0.0110  0.2418
   82POPC   C1A  794   2.170   7.352   5.524  0.0373 -0.2012  0.0587
   82POPC   D2A  795   1.794   7.608   5.497 -0.1042 -0.1893  0.0823
   82POPC   C3A  796   1.766   7.539   5.039  0.0429  0.0793 -0.0728
   82POPC   C4A  797   1.691   7.187   4.722 -0.1019  0.0167 -0.1032
   82POPC   C1B  798   2.361   7.345   5.022  0.0093 -0.1155 -0.0459
   82POPC   C2B  799   2.244   7.459   4.605 -0.0074  0.2571  0.0500
   82POPC   C3B  800   2.565   7.694   4.349  0.0620  0.0923 -0.0325
   82POPC   C4B  801   3.002   7.665   4.320  0.0577 -0.3143  0.1113
   83POPC   NC3  802   7.746   7.839   5.966  0.1474  0.0214 -0.2033
   83POPC   PO4  803   7.638   7.479   5.861  0.0106 -0.1336  0.0735
   83POPC   GL1  804   8.002   7.581   5.676 -0.0491 -0.0581 -0.2034
   83POPC   GL2  805   8.036   7.797   5.535 -0.1433 -0.0899  0.1880
   83POPC   C1A  806   8.130   7.451   5.205 -0.0178  0.2409 -0.0134
   83POPC   D2A  807   8.386   7.436   4.774  0.0317 -0.5233 -0.0129
   83POPC   C3A  808   8.340   7.621   4.391  0.0173  0.0970 -0.0567
   83POPC   C4A  809   8.594   7.790   4.039  0.3275 -0.0316 -0.2025
   83POPC   C1B  810   8.196   7.941   5.165 -0.2902  0.0583  0.0482
   83POPC   C2B  811   8.235   8.007   4.709  0.0766 -0.4857  0.4227
   83POPC   C3B  812   8.596   8.128   4.367 -0.1239  0.0723  0.0050
   83POPC   C4B  813   8.685   8.317   4.006  0.1131  0.0208  0.0478
   84POPC   NC3  814   0.392   4.801   5.482 -0.1039 -0.1867  0.3305
   84POPC   PO4  815   0.009   4.858   5.604 -0.3876 -0.0921  0.3327
   84POPC   GL1  816  -0.139   4.875   5.252  0.2057 -0.0932 -0.1298
   84POPC   GL2  817  -0.325   4.690   5.092  0.3042 -0.1928  0.1284
   84POPC   C1A  818  -0.285   5.154   4.915 -0.1477  0.2682 -0.1294
   84POPC   D2A  819  -0.328   5.587   4.747  0.2035 -0.0682 -0.0188
   84POPC   C3A  820  -0.287   5.493   4.297  0.0795  0.0968  0.2635
   84POPC   C4A  821  -0.342   5.683   3.893  0.0210 -0.3082 -0.3553
   84POPC   C1B  822  -0.502   4.592   4.643  0.1060  0.0895 -0.1925
   84POPC   C2B  823  -0.441   4.574   4.142  0.0639 -0.4312  0.1932
   84POPC   C3B  824  -0.106   4.573   3.852  0.0162  0.0899  0.1073
   84POPC   C4B  825   0.271   4.743   3.603  0.5764  0.0118  0.0509
   85POPC   NC3  826   4.954   1.271   5.850  0.1091 -0.3460 -0.0155
   85POPC   PO4  827   4.899   1.558   5.650  0.2764 -0.0017  0.1405
   85POPC   GL1  828   4.965   1.293   5.364  0.5430 -0.0515 -0.0201
   85POPC   GL2  829   4.942   1.015   5.327 -0.1393  0.0441  0.1356
   85POPC   C1A  830   5.315   1.289   5.019 -0.1220 -0.0238 -0.2218
   85POPC   D2A  831   5.350   1.271   4.532  0.2156  0.2618 -0.0290
   85POPC   C3A  832   5.588   0.936   4.334 -0.0615  0.0457  0.0290
   85POPC   C4A  833   5.918   0.664   4.192 -0.1126  0.3286 -0.2062
   85POPC   C1B  834   4.739   1.284   4.996 -0.1505  0.0798  0.2253
   85POPC   C2B  835   4.780   1.426   4.487 -0.4342 -0.2215  0.1981
   85POPC   C3B  836   4.994   1.360   4.046 -0.2245 -0.0203 -0.4591
   85POPC   C4B  837   5.084   1.411   3.610  0.0250  0.2473 -0.1027
   86POPC   NC3  838   2.896   7.481   5.477  0.0304 -0.0881  0.1452
   86POPC   PO4  839   2.787   7.830   5.423  0.0204 -0.1268  0.0970
   86POPC   GL1  840   3.072   7.672   5.107 -0.1198  0.0386 -0.4041
   86POPC   GL2  841   2.874   7.411   4.963 -0.0093 -0.0788 -0.2884
   86POPC   C1A  842   3.365   7.503   4.766 -0.0921  0.1594  0.1947
   86POPC   D2A  843   3.438   7.277   4.372 -0.3837  0.0134  0.1413
   86POPC   C3A  844   3.144   7.161   4.025  0.0660 -0.2058 -0.0601
   86POPC   C4A  845   3.340   7.039   3.575  0.0551  0.1174  0.1199
   86POPC   C1B  846   2.949   7.136   4.591  0.2934 -0.1636  0.1479
   86POPC   C2B  847   2.918   6.804   4.249 -0.0056  0.2074 -0.0056
   86POPC   C3B  848   3.007   6.348   4.142  0.3722 -0.1538  0.1936
   86POPC   C4B  849   3.226   6.010   3.963  0.3434 -0.1195  0.3793
   87POPC   NC3  850   1.839   1.239   5.008 -0.2328  0.1694  0.2707
   87POPC   PO4  851   2.120   1.244   5.280 -0.3557 -0.1665  0.1322
   87POPC   GL1  852   2.314   1.235   4.922 -0.0073 -0.0427 -0.2258
   87POPC   GL2  853   2.512   1.055   5.035 -0.1903  0.2258 -0.1524
   87POPC   C1A  854   2.182   0.960   4.580 -0.2273 -0.0275  0.0863
   87POPC   D2A  855   2.075   0.624   4.298  0.2979  0.2784  0.0720
   87POPC   C3A  856   2.266   0.614   3.902  0.2680 -0.2349 -0.1612
   87POPC   C4A  857   2.556   0.385   3.659 -0.1957 -0.0740  0.1284
   87POPC   C1B  858   2.537   0.608   4.856 -0.0219 -0.0499  0.1010
   87POPC   C2B  859   2.337   0.312   4.593 -0.1596  0.1682  0.3027
   87POPC   C3B  860   2.329   0.184   4.117  0.1452 -0.1376  0.0835
   87POPC   C4B  861   2.160   0.014   3.720 -0.1426  0.2293 -0.1402
   88POPC   NC3  862   2.903   8.041   5.813 -0.0693 -0.0634 -0.3118
   88POPC   PO4  863   3.186   8.227   5.585  0.0074  0.1290 -0.0229
   88POPC   GL1  864   2.854   8.289   5.367 -0.2843  0.2127 -0.0385
   88POPC   GL2  865   2.941   8.181   5.122 -0.0474 -0.2086  0.0246
   88POPC   C1A  866   2.433   8.319   5.135  0.1561 -0.3123  0.2589
   88POPC   D2A  867   2.314   8.351   4.677 -0.1911 -0.2216  0.1444
   88POPC   C3A  868   2.663   8.191   4.367 -0.1159  0.0122 -0.2791
   88POPC   C4A  869   3.080   8.145   4.151  0.1910  0.1301 -0.0117
   88POPC   C1B  870   2.881   8.458   4.763 -0.2711 -0.1181 -0.2573
   88POPC   C2B  871   2.931   8.613   4.355 -0.0598  0.0195 -0.2558
   88POPC   C3B  872   3.192   8.686   3.996  0.3865  0.2920  0.0172
   88POPC   C4B  873   3.405   8.869   3.696 -0.1613  0.1302  0.2830
   89POPC   NC3  874   6.933   3.165   5.616  0.0243 -0.0733  0.0172
   89POPC   PO4  875   7.169   3.515   5.549 -0.1278  0.2618 -0.0279
   89POPC   GL1  876   7.204   3.452   5.193  0.3282 -0.0020  0.0620
   89POPC   GL2  877   7.527   3.453   5.203 -0.0174  0.0290 -0.0071
   89POPC   C1A  878   7.305   3.697   4.846  0.0060 -0.2370  0.1117
   89POPC   D2A  879   7.720   3.747   4.603  0.2149 -0.1753  0.0122
   89POPC   C3A  880   7.944   3.378   4.464  0.2111  0.2127  0.0372
   89POPC   C4A  881   7.822   3.004   4.268  0.1346  0.0440  0.2628
   89POPC   C1B  882   7.606   3.262   4.792 -0.0042 -0.2028 -0.0527
   89POPC   C2B  883   7.525   2.841   4.605  0.2876 -0.1930 -0.2296
   89POPC   C3B  884   7.313   2.534   4.353  0.0368  0.3949  0.3246
   89POPC   C4B  885   6.881   2.600   4.138 -0.2935 -0.2554  0.1183
   90POPC   NC3  886   0.920   2.531   5.115  0.0195 -0.2271  0.0049
   90POPC   PO4  887   0.654   2.360   5.398  0.0288 -0.0410 -0.2606
   90POPC   GL1  888   0.570   2.240   4.991 -0.1058  0.1989  0.0043
   90POPC   GL2  889   0.765   2.068   4.941 -0.2048  0.2975  0.0948
   90POPC   C1A  890   0.387   2.248   4.527 -0.2080  0.0185  0.1267
   90POPC   D2A  891   0.447   2.264   4.076  0.3113 -0.2576 -0.0659
   90POPC   C3A  892   0.083   2.121   3.858  0.1871  0.1685 -0.0082
   90POPC   C4A  893  -0.088   1.684   3.969  0.3870 -0.0301 -0.1918
   90POPC   C1B  894   0.767   1.894   4.494 -0.0366  0.0796  0.1692
   90POPC   C2B  895   0.788   1.768   4.047 -0.2431 -0.0941  0.0751
   90POPC   C3B  896   0.707   1.939   3.605  0.2121 -0.0977 -0.0420
   90POPC   C4B  897   0.964   2.129   3.276  0.2080 -0.1172 -0.0599
   91POPC   NC3  898   1.637   2.903   4.873  0.0191 -0.2737  0.0260
   91POPC   PO4  899   1.341   2.906   5.152 -0.0001 -0.1942  0.0020
   91POPC   GL1  900   1.192   3.010   4.818 -0.0367  0.1325  0.2296
   91POPC   GL2  901   0.982   2.892   4.677  0.3176  0.1248 -0.0782
   91POPC   C1A  902   1.252   3.256   4.420  0.2118 -0.1337  0.1615
   91POPC   D2A  903   1.086   3.612   4.179  0.1068  0.1493  0.1783
   91POPC   C3A  904   1.122   3.583   3.746 -0.1535  0.0599 -0.1252
   91POPC   C4A  905   1.499   3.415   3.505  0.0709 -0.1383 -0.2552
   91POPC   C1B  906   0.960   2.434   4.602 -0.3047  0.1182  0.0177
   91POPC   C2B  907   1.193   2.113   4.366  0.0708 -0.3015  0.2452
   91POPC   C3B  908   1.378   2.025   3.936 -0.2925 -0.2525  0.0147
   91POPC   C4B  909   1.655   1.762   3.652 -0.0697  0.6289 -0.1609
   92POPC   NC3  910   5.294   6.525   6.062 -0.0055  0.1651  0.3123
   92POPC   PO4  911   5.421   6.792   5.773  0.0639  0.0734  0.1095
   92POPC   GL1  912   5.568   6.886   5.370 -0.3566 -0.2209 -0.0431
   92POPC   GL2  913   5.401   6.848   5.168  0.0512  0.0821  0.0544
   92POPC   C1A  914   5.580   7.275   5.097 -0.0893 -0.2514  0.1160
   92POPC   D2A  915   5.329   7.599   4.859 -0.1417  0.3671 -0.1676
   92POPC   C3A  916   5.262   7.929   4.548 -0.0411 -0.3218 -0.3028
   92POPC   C4A  917   5.355   8.278   4.233  0.1047 -0.2749 -0.0593
   92POPC   C1B  918   5.210   7.005   4.791 -0.1200  0.4034  0.3272
   92POPC   C2B  919   4.939   7.058   4.363  0.2594 -0.0743 -0.1271
   92POPC   C3B  920   4.689   7.239   3.997  0.1213  0.0367  0.1383
   92POPC   C4B  921   4.621   7.486   3.624 -0.2379 -0.1008 -0.0357
   93POPC   NC3  922   1.905   4.541   5.718  0.2305  0.3066 -0.2706
   93POPC   PO4  923   2.116   4.200   5.628  0.2397 -0.0661  0.0785
   93POPC   GL1  924   2.272   4.503   5.427 -0.1569 -0.2466 -0.1058
   93POPC   GL2  925   2.356   4.472   5.107 -0.2073 -0.0661  0.0942
   93POPC   C1A  926   2.646   4.790   5.402 -0.0646  0.2177  0.0018
   93POPC   D2A  927   2.686   5.230   5.336  0.0800 -0.0661 -0.1605
   93POPC   C3A  928   3.033   5.098   5.067 -0.0540  0.4500 -0.0660
   93POPC   C4A  929   3.008   4.782   4.701 -0.1034 -0.0648 -0.1109
   93POPC   C1B  930   2.193   4.189   4.758 -0.1493  0.3223 -0.0012
   93POPC   C2B  931   1.998   4.023   4.327 -0.0758 -0.3053 -0.1847
   93POPC   C3B  932   2.085   3.797   3.955 -0.0406 -0.2653 -0.1330
   93POPC   C4B  933   2.472   3.606   3.726 -0.1995 -0.3283 -0.2809
   94POPC   NC3  934   8.365   6.604   5.581 -0.0407  0.2240  0.0639
   94POPC   PO4  935   8.709   6.478   5.761  0.0903  0.3021 -0.3358
   94POPC   GL1  936   8.926   6.305   5.445 -0.1487  0.1645  0.1758
   94POPC   GL2  937   8.743   6.263   5.236  0.0424 -0.2830 -0.0400
   94POPC   C1A  938   9.157   6.496   5.080  0.3233  0.0834 -0.2135
   94POPC   D2A  939   9.222   6.482   4.589 -0.0315  0.0571 -0.1853
   94POPC   C3A  940   8.893   6.663   4.298  0.2290  0.1673  0.0205
   94POPC   C4A  941   8.489   6.531   4.196  0.1796 -0.0880 -0.0105
   94POPC   C1B  942   8.737   6.486   4.842 -0.2620 -0.5045 -0.0148
   94POPC   C2B  943   9.005   6.900   4.739 -0.4833 -0.2433  0.1412
   94POPC   C3B  944   8.969   7.217   4.429 -0.0914  0.1380  0.3802
   94POPC   C4B  945   8.908   7.713   4.491 -0.1324 -0.1187  0.1351
   95POPC   NC3  946   3.964   6.514   5.820 -0.1854 -0.0925 -0.2998
   95POPC   PO4  947   4.061   6.136   5.846  0.0351 -0.0914  0.0365
   95POPC   GL1  948   4.340   5.830   5.616  0.3469  0.0341  0.1683
   95POPC   GL2  949   4.363   6.097   5.419 -0.2280  0.2763 -0.2354
   95POPC   C1A  950   4.475   5.589   5.270  0.5211  0.0713  0.2770
   95POPC   D2A  951   4.909   5.448   5.039 -0.0980 -0.0466 -0.1668
   95POPC   C3A  952   4.575   5.385   4.745  0.1381 -0.0526 -0.0527
   95POPC   C4A  953   4.407   5.164   4.374 -0.2994  0.2385  0.1578
   95POPC   C1B  954   4.602   6.452   5.237  0.0600  0.0663  0.0965
   95POPC   C2B  955   4.853   6.395   4.859 -0.1342 -0.3056  0.0708
   95POPC   C3B  956   4.988   6.448   4.402 -0.1828 -0.0828 -0.2359
   95POPC   C4B  957   5.342   6.613   4.197 -0.3311 -0.0928 -0.2497
   96POPC   NC3  958   0.034   8.825   5.484 -0.0534 -0.0454 -0.1277
   96POPC   PO4  959  -0.268   9.053   5.595 -0.2415 -0.3897  0.0202
   96POPC   GL1  960  -0.413   9.089   5.260 -0.2805 -0.2248 -0.2387
   96POPC   GL2  961  -0.582   9.298   5.178  0.1020  0.1788  0.2040
   96POPC   C1A  962  -0.304   8.884   4.866 -0.0949  0.1101 -0.0340
   96POPC   D2A  963  -0.325   8.663   4.472 -0.0165 -0.1290 -0.1351
   96POPC   C3A  964   0.052   8.710   4.206 -0.2172 -0.0777  0.4020
   96POPC   C4A  965   0.296   8.883   3.883 -0.0456  0.0414 -0.2762
   96POPC   C1B  966  -0.707   9.366   4.783  0.1132  0.2378 -0.0829
   96POPC   C2B  967  -0.872   9.072   4.430 -0.0381 -0.1559  0.4210
   96POPC   C3B  968  -0.775   8.801   4.012  0.0591 -0.0556  0.1841
   96POPC   C4B  969  -0.606   8.545   3.696  0.2468 -0.1396  0.1864
   97POPC   NC3  970   0.682   7.409   6.769  0.1212  0.2358 -0.0133
   97POPC   PO4  971   0.404   7.213   6.544 -0.1207 -0.3990 -0.2887
   97POPC   GL1  972   0.515   7.493   6.230 -0.4849 -0.1441 -0.3118
   97POPC   GL2  973   0.766   7.695   6.399  0.4119  0.1148  0.2257
   97POPC   C1A  974   0.447   7.432   5.797  0.0287 -0.2015 -0.0327
   97POPC   D2A  975   0.350   7.044   5.562 -0.1760 -0.0655  0.0353
   97POPC   C3A  976   0.457   6.973   5.097 -0.0851 -0.1920  0.3644
   97POPC   C4A  977   0.571   6.915   4.636  0.0675  0.2230  0.0352
   97POPC   C1B  978   0.875   7.614   5.941  0.1324 -0.1369  0.3323
   97POPC   C2B  979   1.189   7.591   5.640 -0.0928 -0.1662  0.1386
   97POPC   C3B  980   1.154   7.659   5.169 -0.0942 -0.0597 -0.1019
   97POPC   C4B  981   1.273   7.523   4.782 -0.2785  0.0647  0.0522
   98POPC   NC3  982   8.424   5.045   5.338 -0.0351 -0.0760 -0.2483
   98POPC   PO4  983   8.265   5.317   5.520 -0.4359  0.0272  0.0347
   98POPC   GL1  984   8.301   5.488   5.175  0.0245 -0.0326 -0.1433
   98POPC   GL2  985   8.238   5.270   5.002  0.1141 -0.0757 -0.2824
   98POPC   C1A  986   8.084   5.766   4.856 -0.1147 -0.2828 -0.4262
   98POPC   D2A  987   7.940   6.090   4.617  0.0661 -0.1592  0.2619
   98POPC   C3A  988   7.856   5.833   4.269  0.3503  0.1955 -0.2371
   98POPC   C4A  989   7.462   5.917   4.060  0.0174  0.2489  0.0260
   98POPC   C1B  990   8.380   5.079   4.567  0.2003 -0.0623  0.0113
   98POPC   C2B  991   8.508   5.085   4.156 -0.1913 -0.0698  0.3060
   98POPC   C3B  992   8.451   4.900   3.684  0.1047  0.1432  0.0279
   98POPC   C4B  993   8.744   4.756   3.357  0.1426  0.0704 -0.1462
   99POPC   NC3  994   7.737   8.616   5.576  0.2996 -0.0339 -0.2490
   99POPC   PO4  995   7.757   8.240   5.643 -0.0694 -0.0381  0.1165
   99POPC   GL1  996   7.784   8.161   5.238 -0.0721  0.2384 -0.3750
   99POPC   GL2  997   7.478   8.242   5.233  0.0149  0.1207  0.1355
   99POPC   C1A  998   7.734   7.857   4.894  0.0844 -0.2740  0.2573
   99POPC   D2A  999   7.815   7.701   4.496 -0.6083  0.0846  0.1094
   99POPC   C3A 1000   7.481   7.623   4.124 -0.2131 -0.2806  0.1420
   99POPC   C4A 1001   7.185   7.271   4.041  0.0955  0.0760  0.1910
   99POPC   C1B 1002   7.513   8.628   5.030  0.0978 -0.1949 -0.0403
   99POPC   C2B 1003   7.403   8.966   4.834 -0.1687  0.0421 -0.1811
   99POPC   C3B 1004   7.186   9.034   4.432 -0.2962  0.0291  0.0646
   99POPC   C4B 1005   7.284   8.858   4.044 -0.0472  0.0916 -0.0957
  100POPC   NC3 1006   4.522   1.184   5.613 -0.1315 -0.3341 -0.0854
  100POPC   PO4 1007   4.440   1.549   5.423 -0.0580  0.0744 -0.1871
  100POPC   GL1 1008   4.810   1.676   5.233  0.1137 -0.1842  0.2012
  100POPC   GL2 1009   4.806   1.933   5.106 -0.0618  0.1208  0.2155
  100POPC   C1A 1010   5.035   1.646   4.813 -0.0652 -0.4305  0.0038
  100POPC   D2A 1011   5.369   1.713   4.400  0.3650 -0.0041  0.1281
  100POPC   C3A 1012   5.814   1.950   4.391 -0.1785  0.0226  0.0648
  100POPC   C4A 1013   5.970   2.108   4.863 -0.1346 -0.2700  0.1775
  100POPC   C1B 1014   4.550   1.899   4.709  0.0170 -0.1656 -0.1793
  100POPC   C2B 1015   4.339   1.954   4.301 -0.2277 -0.0932  0.0733
  100POPC   C3B 1016   4.306   2.125   3.901 -0.0988 -0.2448 -0.1964
  100POPC   C4B 1017   4.019   2.219   3.522 -0.0469  0.0778 -0.1107
  101POPC   NC3 1018   3.801   8.831   5.383  0.1629 -0.3683  0.1980
  101POPC   PO4 1019   3.951   9.197   5.409  0.1698 -0.0853 -0.0375
  101POPC   GL1 1020   4.010   9.045   5.012  0.0114 -0.2155  0.3360
  101POPC   GL2 1021   3.941   9.290   4.866 -0.3603 -0.1959 -0.3705
  101POPC   C1A 1022   4.377   8.959   4.691 -0.2081 -0.2623 -0.0036
  101POPC   D2A 1023   4.631   8.917   4.279 -0.0552  0.0207 -0.0575
  101POPC   C3A 1024   4.545   8.995   3.847  0.1203  0.2522 -0.1137
  101POPC   C4A 1025   4.520   9.275   3.447  0.0652  0.0047  0.1545
  101POPC   C1B 1026   3.830   8.958   4.631 -0.0058  0.1959  0.5019
  101POPC   C2B 1027   3.692   8.899   4.183 -0.1166  0.1778 -0.3005
  101POPC   C3B 1028   3.792   8.535   3.869 -0.1286 -0.0971  0.3147
  101POPC   C4B 1029   3.974   8.184   3.598 -0.0113 -0.3384 -0.0064
  102POPE   NH3 1030   4.195   3.737   5.874  0.0077 -0.2458 -0.2974
  102POPE   PO4 1031   4.396   3.611   5.666  0.0290 -0.1192 -0.0980
  102POPE   GL1 1032   4.191   3.801   5.283 -0.0316 -0.2784 -0.2753
  102POPE   GL2 1033   3.943   3.695   5.261  0.2941 -0.1590 -0.1361
  102POPE   C1A 1034   4.234   3.908   4.819 -0.1667  0.0163 -0.0853
  102POPE   D2A 1035   4.541   3.844   4.480 -0.1289  0.0885 -0.1748
  102POPE   C3A 1036   4.389   3.784   4.024  0.3827  0.1078  0.1451
  102POPE   C4A 1037   4.032   3.836   3.720 -0.0874  0.0406  0.2066
  102POPE   C1B 1038   3.802   3.581   4.866 -0.0918  0.0416  0.2611
  102POPE   C2B 1039   3.343   3.535   4.716 -0.2900  0.2766 -0.1033
  102POPE   C3B 1040   3.031   3.400   5.050  0.0252  0.1139  0.2010
  102POPE   C4B 1041   2.864   2.975   5.239  0.2811  0.3513  0.3586
  103POPE   NH3 1042   4.848   3.414   5.500  0.0635 -0.0071  0.0243
  103POPE   PO4 1043   5.077   3.547   5.307 -0.1441 -0.0770  0.3245
  103POPE   GL1 1044   4.904   3.579   5.025 -0.1372  0.1189 -0.1924
  103POPE   GL2 1045   4.990   3.843   4.910  0.1520  0.2094 -0.1791
  103POPE   C1A 1046   4.868   3.429   4.556 -0.1338  0.2126  0.0056
  103POPE   D2A 1047   4.880   3.623   4.168  0.1276 -0.1118  0.1516
  103POPE   C3A 1048   4.675   3.377   3.833  0.0658 -0.0630  0.1584
  103POPE   C4A 1049   4.239   3.352   3.743 -0.2082  0.1266 -0.2579
  103POPE   C1B 1050   5.025   4.035   4.482  0.0309  0.0425 -0.1034
  103POPE   C2B 1051   5.263   4.262   4.200  0.2514 -0.0067  0.1321
  103POPE   C3B 1052   5.349   4.352   3.753  0.1124 -0.0971 -0.0396
  103POPE   C4B 1053   5.408   4.540   3.309 -0.6034 -0.1187 -0.1443
  104POPE   NH3 1054   5.218   4.788   5.382  0.0002 -0.1485  0.1531
  104POPE   PO4 1055   5.334   4.539   5.195 -0.3208 -0.1549 -0.1523
  104POPE   GL1 1056   5.446   4.648   4.870 -0.0385 -0.2481 -0.0366
  104POPE   GL2 1057   5.188   4.531   4.655  0.0105 -0.2833  0.3044
  104POPE   C1A 1058   5.533   4.909   4.540 -0.1840  0.1083  0.0679
  104POPE   D2A 1059   5.615   5.179   4.194 -0.3482  0.1622 -0.1696
  104POPE   C3A 1060   6.065   5.076   4.032  0.1861  0.0962  0.2076
  104POPE   C4A 1061   6.200   5.134   3.576  0.2406 -0.2213  0.1623
  104POPE   C1B 1062   4.907   4.619   4.293 -0.1194 -0.3302  0.0981
  104POPE   C2B 1063   4.568   4.744   3.986 -0.0959  0.0554  0.2439
  104POPE   C3B 1064   4.224   4.801   3.684 -0.0563 -0.2673  0.0460
  104POPE   C4B 1065   3.931   5.090   3.433 -0.1081  0.0417  0.1793
  105POPE   NH3 1066   8.640   3.166   5.150  0.0880  0.1428 -0.3784
  105POPE   PO4 1067   8.329   3.196   5.274 -0.2509  0.2522  0.1799
  105POPE   GL1 1068   8.250   3.083   4.789  0.2304 -0.0298 -0.0818
  105POPE   GL2 1069   8.432   3.288   4.728 -0.3023  0.1908  0.0637
  105POPE   C1A 1070   8.305   3.128   4.284  0.0736  0.1236 -0.3764
  105POPE   D2A 1071   8.130   3.163   3.895 -0.3506  0.2037  0.1963
  105POPE   C3A 1072   7.798   2.926   3.738  0.0884 -0.1130 -0.0921
  105POPE   C4A 1073   7.500   2.638   3.513  0.3606  0.1107 -0.0587
  105POPE   C1B 1074   8.385   3.646   4.439 -0.1702  0.4700 -0.0483
  105POPE   C2B 1075   8.252   3.602   4.027 -0.1701  0.0344 -0.1012
  105POPE   C3B 1076   8.083   3.935   3.842  0.0355 -0.0407  0.2909
  105POPE   C4B 1077   8.231   4.386   3.752 -0.3694  0.0908 -0.0963
  106POPE   NH3 1078   3.583   5.951   6.002  0.0021 -0.0748 -0.3203
  106POPE   PO4 1079   3.532   6.228   5.870  0.4606  0.1378 -0.2319
  106POPE   GL1 1080   3.388   6.466   5.526  0.0875  0.0099 -0.5105
  106POPE   GL2 1081   3.636   6.503   5.453  0.1903  0.0853 -0.1481
  106POPE   C1A 1082   3.372   6.109   5.160  0.0499  0.0648 -0.1306
  106POPE   D2A 1083   3.237   5.857   4.757  0.1228 -0.0712  0.0295
  106POPE   C3A 1084   3.483   5.888   4.367  0.0141  0.2423  0.1324
  106POPE   C4A 1085   3.715   5.961   3.994 -0.5554  0.1628 -0.1043
  106POPE   C1B 1086   3.533   6.541   5.055  0.3356 -0.4664  0.0689
  106POPE   C2B 1087   3.671   6.299   4.753  0.0630 -0.0397  0.0247
  106POPE   C3B 1088   3.932   6.034   4.430  0.0911  0.1895  0.2603
  106POPE   C4B 1089   4.185   5.723   4.181 -0.2536  0.1979 -0.1845
  107POPE   NH3 1090   3.891   5.380   6.026  0.1670  0.2947 -0.2517
  107POPE   PO4 1091   3.889   5.623   5.864 -0.1087 -0.1831 -0.1451
  107POPE   GL1 1092   3.975   5.638   5.496  0.2233  0.3743  0.2157
  107POPE   GL2 1093   3.792   5.515   5.277 -0.0971  0.1552 -0.2859
  107POPE   C1A 1094   3.987   5.909   5.106  0.0864 -0.1126 -0.2890
  107POPE   D2A 1095   4.191   6.263   4.914  0.0370 -0.2529  0.3588
  107POPE   C3A 1096   4.383   6.230   4.521  0.2576  0.0423 -0.0265
  107POPE   C4A 1097   4.632   6.174   4.170 -0.3267  0.0164  0.1313
  107POPE   C1B 1098   4.088   5.304   5.014  0.0167 -0.1275 -0.0308
  107POPE   C2B 1099   4.203   4.962   4.792 -0.0505  0.2035  0.1400
  107POPE   C3B 1100   4.084   4.780   4.344 -0.1069 -0.2511 -0.0799
  107POPE   C4B 1101   3.845   5.001   3.913 -0.0642  0.4615 -0.0140
  108POPE   NH3 1102   1.342   3.104   5.625 -0.0893 -0.2055  0.1831
  108POPE   PO4 1103   1.234   3.412   5.509  0.0812 -0.0232 -0.0289
  108POPE   GL1 1104   1.241   3.640   5.257 -0.0568 -0.1068 -0.0009
  108POPE   GL2 1105   1.391   3.934   5.177  0.1160 -0.0012 -0.0549
  108POPE   C1A 1106   1.180   3.635   4.755 -0.2742 -0.4159  0.0321
  108POPE   D2A 1107   1.309   3.947   4.433 -0.2311  0.0354  0.2337
  108POPE   C3A 1108   1.595   3.956   4.069  0.2136 -0.1463 -0.1321
  108POPE   C4A 1109   1.554   4.239   3.727 -0.1120  0.1438  0.0334
  108POPE   C1B 1110   1.675   3.859   4.843 -0.3072 -0.0844 -0.0178
  108POPE   C2B 1111   1.720   3.628   4.428  0.2393  0.1450  0.0039
  108POPE   C3B 1112   1.690   3.480   3.964  0.1123 -0.0203 -0.2289
  108POPE   C4B 1113   1.754   3.748   3.601  0.0898 -0.3194 -0.0866
  109POPE   NH3 1114   4.506   6.370   5.943 -0.0796  0.1284  0.2093
  109POPE   PO4 1115   4.801   6.258   5.974  0.0543 -0.0837 -0.1210
  109POPE   GL1 1116   4.874   6.420   5.617  0.3017 -0.0436 -0.3446
  109POPE   GL2 1117   4.848   6.735   5.778  0.0573 -0.2632 -0.0832
  109POPE   C1A 1118   5.158   6.382   5.214 -0.2553  0.1001 -0.0093
  109POPE   D2A 1119   5.359   6.313   4.730 -0.1468  0.0280  0.1560
  109POPE   C3A 1120   5.023   5.996   4.572 -0.1613  0.0243  0.0783
  109POPE   C4A 1121   4.640   5.773   4.479  0.3195  0.0238  0.1301
  109POPE   C1B 1122   4.894   6.898   5.353  0.0897 -0.0428  0.0122
  109POPE   C2B 1123   4.714   6.912   4.915 -0.2086 -0.0553 -0.2366
  109POPE   C3B 1124   4.394   6.853   4.538 -0.2710  0.3500 -0.0313
  109POPE   C4B 1125   4.435   6.615   4.067  0.1940 -0.3084  0.0775
  110POPE   NH3 1126   8.629   4.530   5.611  0.0181  0.1632  0.0682
  110POPE   PO4 1127   8.338   4.621   5.562 -0.2818  0.1923  0.1084
  110POPE   GL1 1128   8.225   4.583   5.202 -0.1993  0.3477 -0.0921
  110POPE   GL2 1129   8.202   4.271   5.150  0.1713 -0.1606  0.1518
  110POPE   C1A 1130   8.059   4.725   4.795  0.2728  0.0394 -0.1389
  110POPE   D2A 1131   8.105   4.712   4.349  0.1093 -0.2068 -0.4378
  110POPE   C3A 1132   8.070   4.962   3.990  0.2621  0.0156 -0.2633
  110POPE   C4A 1133   8.245   5.397   3.838  0.1787 -0.1567  0.0024
  110POPE   C1B 1134   8.390   4.008   4.817  0.2580  0.2105  0.3670
  110POPE   C2B 1135   8.708   4.137   4.439  0.0122 -0.0925 -0.4299
  110POPE   C3B 1136   9.078   4.092   4.151  0.1007 -0.0347 -0.1596
  110POPE   C4B 1137   9.163   4.180   3.703  0.1524 -0.3611  0.4977
  111POPE   NH3 1138   4.086   0.764   5.533  0.0550  0.0451  0.1086
  111POPE   PO4 1139   4.402   0.716   5.601 -0.1756 -0.0399 -0.0043
  111POPE   GL1 1140   4.514   0.866   5.281 -0.0698 -0.1752 -0.0940
  111POPE   GL2 1141   4.325   0.983   5.082 -0.0139 -0.0111  0.2216
  111POPE   C1A 1142   4.716   0.633   4.950  0.0201  0.0397  0.1742
  111POPE   D2A 1143   4.558   0.387   4.616  0.0896  0.2101  0.0704
  111POPE   C3A 1144   4.605   0.426   4.143 -0.0820  0.0286 -0.2144
  111POPE   C4A 1145   4.863   0.404   3.813  0.0425  0.0771 -0.3444
  111POPE   C1B 1146   4.463   1.021   4.657 -0.1465 -0.2498  0.4521
  111POPE   C2B 1147   4.780   0.825   4.366  0.2529  0.1445  0.1059
  111POPE   C3B 1148   5.008   0.892   3.937 -0.0607 -0.1273 -0.2327
  111POPE   C4B 1149   5.449   0.940   3.806 -0.1738  0.1013 -0.1309
  112POPE   NH3 1150   1.392   5.757   5.766 -0.1312 -0.1698 -0.0579
  112POPE   PO4 1151   1.213   5.912   5.509 -0.1782  0.1594 -0.0411
  112POPE   GL1 1152   1.040   6.106   5.121  0.2382  0.0849  0.0255
  112POPE   GL2 1153   1.269   6.239   5.000  0.2858 -0.1966 -0.0733
  112POPE   C1A 1154   1.010   5.971   4.705  0.1190 -0.1405 -0.1920
  112POPE   D2A 1155   1.005   5.977   4.244 -0.0149 -0.0910  0.2609
  112POPE   C3A 1156   0.694   6.154   3.950  0.1225 -0.1114  0.2310
  112POPE   C4A 1157   0.510   6.223   3.564  0.0140 -0.0655  0.0592
  112POPE   C1B 1158   0.921   6.497   4.771 -0.0182  0.0711  0.1382
  112POPE   C2B 1159   0.667   6.473   4.363  0.0911  0.2448  0.1165
  112POPE   C3B 1160   0.477   6.818   4.149 -0.0878 -0.3598  0.0579
  112POPE   C4B 1161   0.451   7.261   4.220 -0.3809 -0.0278 -0.1643
  113POPE   NH3 1162   0.271   3.998   5.242  0.1083 -0.3397  0.0781
  113POPE   PO4 1163   0.541   4.176   5.314  0.1597 -0.0046  0.1229
  113POPE   GL1 1164   0.701   4.117   4.924  0.1515 -0.3681  0.0095
  113POPE   GL2 1165   0.896   3.935   5.030  0.0226 -0.2872  0.1214
  113POPE   C1A 1166   0.514   4.374   4.579 -0.0562 -0.1578 -0.0726
  113POPE   D2A 1167   0.464   4.864   4.404  0.0269 -0.0461 -0.1085
  113POPE   C3A 1168   0.538   5.054   4.001 -0.1166 -0.0585  0.3647
  113POPE   C4A 1169   0.839   5.373   3.696  0.0501  0.0336 -0.4233
  113POPE   C1B 1170   1.141   4.278   4.752  0.4695 -0.0596 -0.0777
  113POPE   C2B 1171   1.289   4.396   4.306  0.0030  0.1171 -0.0786
  113POPE   C3B 1172   1.259   4.627   3.884 -0.0863 -0.1183 -0.0638
  113POPE   C4B 1173   1.533   4.735   3.518  0.2716 -0.0363  0.1676
  114POPE   NH3 1174   2.321   0.543   5.732 -0.3616 -0.2218  0.0393
  114POPE   PO4 1175   2.278   0.695   5.416  0.0777 -0.0634  0.0180
  114POPE   GL1 1176   2.080   0.789   4.997  0.0244 -0.3434  0.1090
  114POPE   GL2 1177   2.014   0.526   4.925  0.0225 -0.0765  0.2772
  114POPE   C1A 1178   1.680   0.795   4.700 -0.0615 -0.3257  0.0905
  114POPE   D2A 1179   1.300   0.615   4.445  0.0923  0.0696 -0.0832
  114POPE   C3A 1180   1.282   0.264   4.159  0.2417 -0.3895  0.1937
  114POPE   C4A 1181   1.301  -0.136   3.924  0.1705 -0.0510  0.1761
  114POPE   C1B 1182   1.860   0.263   4.547 -0.1637  0.0890  0.1172
  114POPE   C2B 1183   1.886   0.004   4.178  0.2708 -0.1498  0.3651
  114POPE   C3B 1184   1.782  -0.300   3.883 -0.1320 -0.0708  0.1919
  114POPE   C4B 1185   2.060  -0.514   3.572 -0.1703  0.0113  0.1191
  115POPE   NH3 1186   3.659   8.207   5.829  0.0691 -0.2913 -0.0968
  115POPE   PO4 1187   3.762   7.886   5.782 -0.2340 -0.2550  0.1024
  115POPE   GL1 1188   3.547   7.990   5.406  0.1083 -0.0267 -0.2459
  115POPE   GL2 1189   3.797   7.893   5.237  0.0958  0.0068 -0.3142
  115POPE   C1A 1190   3.374   8.009   4.997  0.2662  0.1729  0.1256
  115POPE   D2A 1191   3.089   8.010   4.668 -0.0807 -0.4781  0.1207
  115POPE   C3A 1192   2.688   7.897   4.786 -0.0262 -0.2632 -0.0260
  115POPE   C4A 1193   2.297   7.855   4.948  0.0367  0.1812  0.0756
  115POPE   C1B 1194   3.892   7.824   4.825  0.2888 -0.1913  0.1491
  115POPE   C2B 1195   3.970   7.694   4.397 -0.0347 -0.1836  0.1569
  115POPE   C3B 1196   3.749   7.519   3.996  0.0750 -0.0544 -0.0439
  115POPE   C4B 1197   3.605   7.468   3.526 -0.4099 -0.1907  0.1801
  116POPE   NH3 1198   6.105   1.927   5.379 -0.2080 -0.0675 -0.0459
  116POPE   PO4 1199   5.823   1.918   5.589 -0.0174 -0.2874  0.0088
  116POPE   GL1 1200   5.706   1.918   5.179 -0.1460 -0.0050 -0.2559
  116POPE   GL2 1201   5.481   1.889   5.139  0.0660 -0.1906  0.3088
  116POPE   C1A 1202   5.708   1.575   4.784  0.0725  0.0938 -0.1418
  116POPE   D2A 1203   5.831   1.428   4.377 -0.1098 -0.1451  0.1044
  116POPE   C3A 1204   5.914   1.209   3.974  0.3948 -0.1490  0.0532
  116POPE   C4A 1205   6.013   0.914   3.690 -0.1256 -0.2483 -0.2915
  116POPE   C1B 1206   5.494   2.051   4.709 -0.0061 -0.0777  0.0571
  116POPE   C2B 1207   5.375   2.183   4.271 -0.0075  0.2415  0.3359
  116POPE   C3B 1208   5.426   2.256   3.801 -0.0648 -0.1358 -0.1838
  116POPE   C4B 1209   5.644   2.150   3.423  0.1616  0.0201 -0.0381
  117POPE   NH3 1210   8.559   5.741   5.428  0.2499  0.1457  0.1196
  117POPE   PO4 1211   8.396   6.038   5.495 -0.2761  0.2002 -0.1291
  117POPE   GL1 1212   8.389   6.081   5.108  0.1496  0.1695  0.1428
  117POPE   GL2 1213   8.164   6.225   5.067  0.0068 -0.3258 -0.1422
  117POPE   C1A 1214   8.477   6.117   4.663  0.0907 -0.1229 -0.1981
  117POPE   D2A 1215   8.346   5.888   4.243 -0.2194 -0.0401 -0.2809
  117POPE   C3A 1216   8.164   5.458   4.309  0.3091  0.2199 -0.0998
  117POPE   C4A 1217   7.823   5.134   4.371  0.2580  0.1835  0.0912
  117POPE   C1B 1218   8.274   6.612   4.821 -0.1401 -0.1695  0.0808
  117POPE   C2B 1219   8.042   6.814   4.474  0.0813 -0.3835  0.1721
  117POPE   C3B 1220   8.029   6.784   4.108 -0.2031 -0.0626  0.1463
  117POPE   C4B 1221   8.175   6.955   3.687 -0.3614 -0.1147 -0.0623
  118POPE   NH3 1222   3.113   4.748   6.222  0.1935  0.1171  0.0750
  118POPE   PO4 1223   3.176   4.556   5.934 -0.2156  0.2855  0.4004
  118POPE   GL1 1224   2.993   4.598   5.507  0.0108  0.5436 -0.1715
  118POPE   GL2 1225   3.260   4.719   5.335 -0.0083 -0.2191 -0.0727
  118POPE   C1A 1226   2.876   4.451   5.123  0.1485 -0.0794 -0.0565
  118POPE   D2A 1227   2.672   4.270   4.744  0.0167 -0.1342 -0.1777
  118POPE   C3A 1228   2.568   3.790   4.721 -0.2847 -0.0219 -0.1309
  118POPE   C4A 1229   2.538   3.368   4.962  0.0400  0.2883 -0.1148
  118POPE   C1B 1230   3.375   4.469   4.951 -0.0644  0.0986 -0.1642
  118POPE   C2B 1231   3.519   4.603   4.482 -0.1367 -0.0532  0.0779
  118POPE   C3B 1232   3.554   4.574   4.011 -0.3863  0.2049 -0.1125
  118POPE   C4B 1233   3.680   4.211   3.710 -0.1679 -0.1687 -0.0407
  119POPE   NH3 1234   8.721   1.835   4.887 -0.2642 -0.2213  0.2282
  119POPE   PO4 1235   9.014   1.816   5.100 -0.5521 -0.0505 -0.0084
  119POPE   GL1 1236   9.231   1.881   4.714 -0.7601 -0.3801 -0.2682
  119POPE   GL2 1237   9.106   1.651   4.642  0.0173  0.1774  0.1345
  119POPE   C1A 1238   8.926   2.035   4.392 -0.1060  0.0612  0.0903
  119POPE   D2A 1239   8.685   2.199   4.105 -0.1748  0.0941 -0.1053
  119POPE   C3A 1240   8.737   2.521   3.775 -0.1464 -0.1158  0.1013
  119POPE   C4A 1241   8.470   2.876   3.536  0.3372  0.3007 -0.0593
  119POPE   C1B 1242   9.352   1.763   4.229  0.2049  0.2018 -0.1467
  119POPE   C2B 1243   9.370   1.536   3.791 -0.0224 -0.1016 -0.1231
  119POPE   C3B 1244   9.117   1.135   3.622 -0.4204 -0.2136  0.0414
  119POPE   C4B 1245   8.801   0.839   3.410  0.0974  0.3857 -0.2083
  120POPE   NH3 1246   4.985   8.357   6.222  0.1969 -0.1115  0.3015
  120POPE   PO4 1247   5.008   8.542   5.968 -0.1956  0.0014 -0.1861
  120POPE   GL1 1248   5.201   8.578   5.588 -0.0471 -0.0297 -0.2756
  120POPE   GL2 1249   5.337   8.877   5.612  0.1520  0.1333  0.1506
  120POPE   C1A 1250   5.606   8.538   5.422  0.1014  0.0160 -0.4577
  120POPE   D2A 1251   5.962   8.279   5.355 -0.0878  0.0855 -0.0713
  120POPE   C3A 1252   5.894   8.067   4.951 -0.0546  0.0392 -0.1151
  120POPE   C4A 1253   5.776   8.086   4.448  0.2079 -0.1531  0.3210
  120POPE   C1B 1254   5.526   8.927   5.164  0.1324  0.0277  0.4514
  120POPE   C2B 1255   5.526   8.773   4.680  0.1374  0.0397 -0.1076
  120POPE   C3B 1256   5.793   8.578   4.297  0.2024 -0.1974 -0.0443
  120POPE   C4B 1257   5.949   8.691   3.879  0.1909  0.2215 -0.2206
  121POPE   NH3 1258   8.706   2.104   5.412  0.1961 -0.0322 -0.1311
  121POPE   PO4 1259   8.550   2.254   5.174  0.2674  0.1479 -0.4453
  121POPE   GL1 1260   8.694   2.312   4.897 -0.2258  0.0600  0.1894
  121POPE   GL2 1261   8.907   2.304   4.775  0.0155  0.0489 -0.2159
  121POPE   C1A 1262   8.364   2.171   4.566  0.0023 -0.0488  0.2826
  121POPE   D2A 1263   8.011   2.116   4.203  0.1000 -0.3900 -0.2681
  121POPE   C3A 1264   7.823   1.753   3.954 -0.0874  0.0904  0.0078
  121POPE   C4A 1265   7.741   1.583   3.537  0.2750  0.3020  0.0989
  121POPE   C1B 1266   8.988   2.559   4.371  0.1941  0.1666  0.0267
  121POPE   C2B 1267   8.816   2.893   4.184  0.2216  0.0070  0.1850
  121POPE   C3B 1268   8.709   3.306   3.987  0.0716  0.1189 -0.1147
  121POPE   C4B 1269   8.552   3.502   3.618 -0.2532 -0.1010  0.1663
  122POPE   NH3 1270   3.764   1.381   5.469 -0.1631  0.3226 -0.1813
  122POPE   PO4 1271   3.882   1.139   5.257  0.0730 -0.1072 -0.3664
  122POPE   GL1 1272   3.871   0.827   5.061 -0.0147  0.0863  0.1612
  122POPE   GL2 1273   3.750   0.613   5.193  0.0129 -0.3122 -0.1973
  122POPE   C1A 1274   3.975   0.839   4.622  0.1377  0.0124 -0.3701
  122POPE   D2A 1275   4.175   0.586   4.385 -0.0985 -0.2362 -0.3552
  122POPE   C3A 1276   4.102   0.142   4.259 -0.1805 -0.1706  0.3248
  122POPE   C4A 1277   4.237  -0.268   4.076 -0.0213 -0.1152 -0.0871
  122POPE   C1B 1278   3.502   0.582   4.780 -0.2989 -0.3334  0.0189
  122POPE   C2B 1279   3.706   0.404   4.400 -0.1598  0.0743 -0.0766
  122POPE   C3B 1280   3.768   0.343   3.929 -0.1866 -0.3913  0.2272
  122POPE   C4B 1281   4.049   0.012   3.743  0.0539 -0.4265  0.0295
  123POPE   NH3 1282   4.569   2.543   5.612 -0.2158 -0.0667 -0.2141
  123POPE   PO4 1283   4.758   2.532   5.421 -0.0577  0.0686  0.5818
  123POPE   GL1 1284   4.809   2.752   5.160  0.3660 -0.3098 -0.0120
  123POPE   GL2 1285   4.797   2.576   4.917 -0.0130 -0.2347  0.0103
  123POPE   C1A 1286   4.610   3.032   4.815 -0.2322 -0.0558 -0.1979
  123POPE   D2A 1287   4.515   2.927   4.399 -0.1342 -0.2263 -0.0450
  123POPE   C3A 1288   4.202   3.062   4.146  0.3406 -0.0918 -0.2465
  123POPE   C4A 1289   3.794   3.131   3.978  0.1751 -0.0718 -0.1726
  123POPE   C1B 1290   4.996   2.156   4.698  0.0835 -0.3039 -0.3698
  123POPE   C2B 1291   4.898   1.955   4.304  0.3980 -0.3337 -0.0704
  123POPE   C3B 1292   5.184   1.830   3.941  0.1578  0.2221 -0.4135
  123POPE   C4B 1293   5.528   1.463   3.872 -0.1043  0.0715  0.0154
  124POPE   NH3 1294   0.469   2.787   5.336  0.0249 -0.1499  0.2588
  124POPE   PO4 1295   0.610   2.969   5.168  0.0399  0.0460  0.3814
  124POPE   GL1 1296   0.579   2.690   4.812 -0.1009  0.0384 -0.1423
  124POPE   GL2 1297   0.327   2.624   4.874  0.3186  0.2342  0.1909
  124POPE   C1A 1298   0.663   2.712   4.337 -0.0337  0.0504 -0.0898
  124POPE   D2A 1299   0.323   2.798   4.021 -0.1135 -0.0246 -0.0219
  124POPE   C3A 1300   0.134   2.827   3.661 -0.1783  0.0573 -0.1112
  124POPE   C4A 1301  -0.065   3.125   3.316  0.0774 -0.1340 -0.0615
  124POPE   C1B 1302   0.245   2.937   4.528 -0.0003 -0.1611  0.2242
  124POPE   C2B 1303   0.208   3.271   4.180  0.0807 -0.0388  0.1689
  124POPE   C3B 1304   0.434   3.223   3.741 -0.1013 -0.0240 -0.0785
  124POPE   C4B 1305   0.325   3.426   3.354 -0.1580 -0.0297  0.1635
  125POPE   NH3 1306   1.597   5.255   5.901  0.0970  0.0830 -0.0986
  125POPE   PO4 1307   1.759   5.004   5.938  0.2202 -0.2045  0.0786
  125POPE   GL1 1308   1.788   5.012   5.510 -0.2177  0.6718  0.1323
  125POPE   GL2 1309   1.757   4.770   5.314  0.1040  0.0926 -0.0580
  125POPE   C1A 1310   2.221   5.008   5.303 -0.0648 -0.0242 -0.1511
  125POPE   D2A 1311   2.476   4.899   4.923  0.0072  0.0406  0.1944
  125POPE   C3A 1312   2.353   4.613   4.580 -0.3731 -0.0178 -0.1184
  125POPE   C4A 1313   2.493   4.251   4.275 -0.2407  0.2085  0.3236
  125POPE   C1B 1314   1.980   4.742   4.927 -0.1846 -0.0863  0.0957
  125POPE   C2B 1315   1.928   4.829   4.468  0.1684 -0.1380  0.1796
  125POPE   C3B 1316   2.222   4.884   4.131  0.2549 -0.0031  0.0607
  125POPE   C4B 1317   2.535   4.659   3.884  0.0534 -0.2388  0.1337
  126POPE   NH3 1318   6.469   5.753   5.395  0.2269 -0.0653  0.0787
  126POPE   PO4 1319   6.198   5.629   5.284 -0.1880  0.1367 -0.2297
  126POPE   GL1 1320   6.241   5.938   4.955 -0.4257  0.1079  0.2227
  126POPE   GL2 1321   6.319   6.141   5.090  0.0253 -0.0327 -0.0474
  126POPE   C1A 1322   6.000   6.007   4.543  0.0073  0.1248 -0.1446
  126POPE   D2A 1323   5.642   6.211   4.296 -0.0197  0.0918 -0.2449
  126POPE   C3A 1324   5.544   6.283   3.868  0.3810 -0.2784  0.2478
  126POPE   C4A 1325   5.584   6.711   3.658 -0.0767 -0.3397  0.0119
  126POPE   C1B 1326   6.238   6.479   4.777  0.0113  0.3767 -0.1534
  126POPE   C2B 1327   6.194   6.850   4.543 -0.0309  0.1208  0.0937
  126POPE   C3B 1328   6.292   7.159   4.197  0.1863 -0.0933  0.3070
  126POPE   C4B 1329   6.532   7.318   3.873  0.0968 -0.0209  0.1862
  127POPE   NH3 1330   0.933   4.870   5.742 -0.2125 -0.0052  0.3991
  127POPE   PO4 1331   0.929   4.857   5.416 -0.1009 -0.0040 -0.1547
  127POPE   GL1 1332   0.951   5.106   5.067 -0.1300  0.3331  0.1109
  127POPE   GL2 1333   0.714   5.115   4.915  0.1292 -0.0184  0.1029
  127POPE   C1A 1334   1.087   5.326   4.710 -0.1455 -0.2974 -0.2406
  127POPE   D2A 1335   1.349   5.521   4.365 -0.1638  0.0049  0.0669
  127POPE   C3A 1336   1.786   5.772   4.355  0.2501 -0.1453 -0.0985
  127POPE   C4A 1337   2.184   5.863   4.106 -0.1226 -0.0540 -0.2438
  127POPE   C1B 1338   0.917   4.796   4.627 -0.0756 -0.0772  0.1262
  127POPE   C2B 1339   0.871   4.687   4.180 -0.1938  0.0279  0.2013
  127POPE   C3B 1340   0.794   4.718   3.730 -0.0670 -0.1385 -0.0903
  127POPE   C4B 1341   0.648   4.945   3.362 -0.1788  0.1216 -0.1268
  128POPE   NH3 1342   2.200   2.128   5.181  0.0085 -0.2548 -0.1206
  128POPE   PO4 1343   2.181   2.451   5.104 -0.2457 -0.0829 -0.1981
  128POPE   GL1 1344   1.978   2.387   4.833 -0.3422 -0.1019  0.2571
  128POPE   GL2 1345   2.006   2.616   4.652 -0.0835 -0.3531 -0.2170
  128POPE   C1A 1346   2.134   2.125   4.484  0.1227 -0.0305 -0.0917
  128POPE   D2A 1347   2.368   1.834   4.221 -0.0164 -0.1261  0.2755
  128POPE   C3A 1348   2.712   1.908   3.884 -0.1375  0.0928 -0.0406
  128POPE   C4A 1349   2.923   2.189   3.615 -0.3897 -0.3620 -0.2968
  128POPE   C1B 1350   2.107   2.709   4.226  0.0832  0.0322  0.1444
  128POPE   C2B 1351   2.058   2.627   3.766  0.0238 -0.1218 -0.0801
  128POPE   C3B 1352   1.855   2.321   3.502  0.0596  0.0614  0.0662
  128POPE   C4B 1353   1.483   2.119   3.365  0.0061 -0.0305 -0.1998
  129POPE   NH3 1354   0.762   3.312   5.537  0.1897 -0.0183  0.0966
  129POPE   PO4 1355   0.465   3.418   5.413 -0.2308 -0.1461 -0.2296
  129POPE   GL1 1356   0.469   3.682   4.967  0.0897 -0.1202  0.1502
  129POPE   GL2 1357   0.486   3.426   4.829  0.1346  0.2241  0.0392
  129POPE   C1A 1358   0.767   3.791   4.585 -0.1269 -0.0995  0.2736
  129POPE   D2A 1359   0.876   4.072   4.304 -0.3041 -0.3085 -0.0001
  129POPE   C3A 1360   1.119   4.052   3.920  0.0732 -0.0531 -0.2347
  129POPE   C4A 1361   1.092   4.368   3.494  0.2634  0.0142 -0.1775
  129POPE   C1B 1362   0.719   3.294   4.449  0.1983 -0.2402  0.4771
  129POPE   C2B 1363   0.842   3.151   4.027  0.1927  0.2367  0.0167
  129POPE   C3B 1364   1.205   3.026   3.689  0.2508 -0.0808  0.1061
  129POPE   C4B 1365   1.563   2.842   3.430  0.0147 -0.0807  0.0236
  130POPE   NH3 1366   5.920   6.897   5.880 -0.0188 -0.2436 -0.0007
  130POPE   PO4 1367   6.007   6.724   5.634 -0.1977 -0.0503 -0.1176
  130POPE   GL1 1368   5.948   6.680   5.291  0.3319  0.0356 -0.0955
  130POPE   GL2 1369   5.836   6.480   5.157 -0.1086  0.3458 -0.3612
  130POPE   C1A 1370   6.001   7.008   4.952  0.0350  0.1739 -0.0403
  130POPE   D2A 1371   5.976   7.332   4.637 -0.2700  0.0335 -0.0121
  130POPE   C3A 1372   5.825   7.481   4.265 -0.0754 -0.0494  0.0556
  130POPE   C4A 1373   5.546   7.769   4.061  0.0759 -0.2675  0.1029
  130POPE   C1B 1374   5.668   6.699   4.758  0.0368  0.0478  0.1394
  130POPE   C2B 1375   5.569   7.027   4.451  0.2623  0.3738  0.2228
  130POPE   C3B 1376   5.337   7.384   4.331  0.0177  0.2498 -0.2832
  130POPE   C4B 1377   5.100   7.594   3.976 -0.1722 -0.1965 -0.2353
  131POPE   NH3 1378   8.744   4.002   5.722 -0.3293  0.0963  0.3110
  131POPE   PO4 1379   8.808   4.061   5.410 -0.0663 -0.2998 -0.1135
  131POPE   GL1 1380   8.852   4.140   5.000 -0.0122  0.1657 -0.2102
  131POPE   GL2 1381   8.914   3.940   4.820 -0.2872  0.2177  0.0359
  131POPE   C1A 1382   9.074   4.427   4.741 -0.4493  0.0758 -0.2202
  131POPE   D2A 1383   9.112   4.579   4.307 -0.1115 -0.3830 -0.1974
  131POPE   C3A 1384   9.450   4.430   4.072  0.0402 -0.0471  0.3476
  131POPE   C4A 1385   9.682   4.205   3.693 -0.0279 -0.4360 -0.1704
  131POPE   C1B 1386   9.279   3.879   4.530  0.0147 -0.0330  0.0095
  131POPE   C2B 1387   9.434   3.701   4.164 -0.3566 -0.2572  0.0507
  131POPE   C3B 1388   9.629   3.713   3.731  0.0783 -0.3759  0.1873
  131POPE   C4B 1389   9.889   3.857   3.436  0.3011  0.0477 -0.0436
  132POPE   NH3 1390   6.218   2.382   5.542  0.2662 -0.0713  0.0102
  132POPE   PO4 1391   6.489   2.280   5.464  0.3836 -0.4860 -0.1726
  132POPE   GL1 1392   6.449   2.283   5.080 -0.3480 -0.0039  0.0477
  132POPE   GL2 1393   6.589   2.531   4.998 -0.0847 -0.1662  0.2434
  132POPE   C1A 1394   6.415   2.061   4.668  0.4031 -0.3586  0.0943
  132POPE   D2A 1395   6.363   2.104   4.203 -0.0903 -0.0453 -0.1246
  132POPE   C3A 1396   6.061   1.843   3.953  0.2754  0.2313 -0.2507
  132POPE   C4A 1397   5.826   1.796   3.629  0.0461 -0.0114  0.2303
  132POPE   C1B 1398   6.473   2.568   4.522 -0.1367 -0.1610 -0.1033
  132POPE   C2B 1399   6.357   2.660   4.074  0.1190  0.1923 -0.0914
  132POPE   C3B 1400   6.180   2.767   3.626  0.4555 -0.0757 -0.0705
  132POPE   C4B 1401   5.907   3.111   3.695  0.1811  0.0406 -0.2320
  133POPE   NH3 1402   3.004   1.753   5.441 -0.2098 -0.1311  0.2143
  133POPE   PO4 1403   3.303   1.574   5.388  0.2796  0.1010 -0.0308
  133POPE   GL1 1404   3.385   1.387   5.045 -0.3320 -0.0727 -0.1143
  133POPE   GL2 1405   3.584   1.273   4.881  0.1264  0.2760 -0.1081
  133POPE   C1A 1406   3.208   1.457   4.603  0.1301  0.0095 -0.0385
  133POPE   D2A 1407   2.835   1.606   4.301 -0.1228 -0.1769 -0.2197
  133POPE   C3A 1408   2.897   1.266   4.004 -0.1012 -0.0549  0.1718
  133POPE   C4A 1409   3.245   0.993   3.849 -0.0101 -0.0311  0.0744
  133POPE   C1B 1410   3.766   1.248   4.467 -0.5186 -0.4158  0.3505
  133POPE   C2B 1411   3.832   1.194   3.987 -0.0762 -0.0860  0.1007
  133POPE   C3B 1412   4.009   1.252   3.571  0.0009 -0.2028  0.0063
  133POPE   C4B 1413   3.942   1.239   3.117 -0.0845  0.3399  0.1036
  134POPE   NH3 1414   4.174   1.763   5.752 -0.0194  0.0735 -0.2343
  134POPE   PO4 1415   3.972   1.836   5.545  0.1949  0.1247  0.4581
  134POPE   GL1 1416   3.905   1.598   5.097  0.1391 -0.3060  0.0631
  134POPE   GL2 1417   4.145   1.817   5.042  0.1603  0.0420 -0.0564
  134POPE   C1A 1418   4.151   1.346   4.789 -0.0689  0.1366  0.1256
  134POPE   D2A 1419   4.284   1.363   4.301  0.1691  0.0541  0.0418
  134POPE   C3A 1420   4.236   0.953   4.008  0.0687  0.1966 -0.1886
  134POPE   C4A 1421   4.229   0.581   3.754  0.0716  0.0693 -0.1325
  134POPE   C1B 1422   3.872   1.812   4.657 -0.0084 -0.1830  0.2306
  134POPE   C2B 1423   3.804   1.712   4.273  0.0989  0.0916  0.0001
  134POPE   C3B 1424   3.779   1.871   3.825 -0.1708  0.0650  0.1882
  134POPE   C4B 1425   3.751   1.818   3.364 -0.3037 -0.1319  0.0017
  135POPE   NH3 1426   0.661   0.242   5.904  0.0082  0.2344 -0.1000
  135POPE   PO4 1427   0.354   0.093   5.805 -0.1768  0.1267 -0.1742
  135POPE   GL1 1428   0.712  -0.054   5.574 -0.1326  0.1907 -0.0180
  135POPE   GL2 1429   0.591  -0.125   5.316 -0.0603  0.0632  0.2357
  135POPE   C1A 1430   0.925  -0.480   5.564  0.1186  0.1203  0.4539
  135POPE   D2A 1431   1.127  -0.911   5.609  0.1327 -0.1664 -0.1699
  135POPE   C3A 1432   1.560  -0.998   5.678  0.1096  0.2100  0.1587
  135POPE   C4A 1433   1.913  -0.808   5.412  0.1070 -0.4688 -0.0078
  135POPE   C1B 1434   0.594  -0.160   4.897 -0.0207 -0.0111  0.2396
  135POPE   C2B 1435   0.498  -0.486   4.562 -0.2258  0.2495  0.0002
  135POPE   C3B 1436   0.479  -0.552   4.099  0.2664 -0.0221 -0.0303
  135POPE   C4B 1437   0.274  -0.577   3.734 -0.3226 -0.0477 -0.0460
  136POPE   NH3 1438   7.936   2.375   5.468  0.1112  0.1793  0.2103
  136POPE   PO4 1439   7.688   2.516   5.313 -0.3511 -0.0078 -0.2001
  136POPE   GL1 1440   7.883   2.357   4.941  0.1855  0.0557  0.0802
  136POPE   GL2 1441   8.057   2.221   5.044 -0.2872  0.0869 -0.1886
  136POPE   C1A 1442   7.957   2.529   4.486  0.2011 -0.1859  0.1817
  136POPE   D2A 1443   7.759   2.584   4.036 -0.1564  0.2417  0.0821
  136POPE   C3A 1444   7.667   2.200   3.773 -0.3030 -0.1166 -0.1753
  136POPE   C4A 1445   7.515   2.000   3.366 -0.0328  0.3813  0.1118
  136POPE   C1B 1446   8.014   1.865   4.740  0.2357  0.0683 -0.2080
  136POPE   C2B 1447   7.692   1.718   4.451  0.0607 -0.0281  0.1555
  136POPE   C3B 1448   7.587   1.327   4.165 -0.2467 -0.3356  0.1095
  136POPE   C4B 1449   7.836   1.080   3.849  0.1319 -0.1186 -0.3436
  137POPE   NH3 1450   6.682   4.854   5.421  0.1259  0.0338 -0.1090
  137POPE   PO4 1451   6.881   4.903   5.182 -0.1040  0.1039 -0.1085
  137POPE   GL1 1452   6.806   4.702   4.821 -0.1339 -0.3502  0.3819
  137POPE   GL2 1453   7.049   4.633   4.702  0.0574  0.0722 -0.1406
  137POPE   C1A 1454   6.569   4.550   4.443  0.0025  0.0017  0.0366
  137POPE   D2A 1455   6.244   4.430   4.154 -0.1651  0.0983 -0.1119
  137POPE   C3A 1456   6.288   4.296   3.753 -0.4085 -0.2169 -0.1929
  137POPE   C4A 1457   6.216   3.941   3.480  0.1276 -0.1889  0.1129
  137POPE   C1B 1458   7.279   4.905   4.436  0.2389 -0.1161 -0.0366
  137POPE   C2B 1459   7.534   4.882   3.998  0.0961 -0.1637 -0.3527
  137POPE   C3B 1460   7.629   4.828   3.604 -0.0917  0.1530 -0.0742
  137POPE   C4B 1461   7.554   4.518   3.257 -0.4489 -0.0851  0.2735
  138POPE   NH3 1462   0.090   0.443   5.548 -0.1761 -0.1370 -0.2073
  138POPE   PO4 1463  -0.131   0.468   5.340  0.0981 -0.1679 -0.0831
  138POPE   GL1 1464   0.050   0.096   5.130 -0.2780  0.2230  0.1754
  138POPE   GL2 1465   0.284   0.217   5.066  0.1172  0.0024  0.0249
  138POPE   C1A 1466   0.118  -0.326   4.919  0.0499 -0.0237  0.0149
  138POPE   D2A 1467   0.009  -0.747   4.888  0.1381 -0.0277 -0.0024
  138POPE   C3A 1468  -0.323  -1.133   4.924 -0.2386  0.0410 -0.1395
  138POPE   C4A 1469  -0.182  -1.584   4.984 -0.2798  0.2825  0.2394
  138POPE   C1B 1470   0.715   0.297   4.995 -0.0894  0.0148 -0.0050
  138POPE   C2B 1471   0.836   0.340   4.522  0.0381 -0.1503  0.1237
  138POPE   C3B 1472   0.778   0.533   4.141 -0.1379  0.0019 -0.1266
  138POPE   C4B 1473   0.546   0.928   3.967  0.3046 -0.0534 -0.2978
  139POPE   NH3 1474   6.975   1.085   6.150 -0.0036 -0.0488  0.2584
  139POPE   PO4 1475   7.101   1.296   5.912  0.1875  0.2009 -0.0364
  139POPE   GL1 1476   7.270   1.292   5.535  0.2681  0.2996  0.6523
  139POPE   GL2 1477   7.561   1.187   5.458 -0.2469 -0.1820 -0.2054
  139POPE   C1A 1478   7.289   1.424   5.073 -0.0220  0.0328  0.1124
  139POPE   D2A 1479   7.288   1.723   4.718 -0.1579  0.2042  0.0826
  139POPE   C3A 1480   7.152   1.518   4.347  0.3279 -0.0002  0.2213
  139POPE   C4A 1481   7.045   1.196   4.042 -0.1507  0.1017 -0.1129
  139POPE   C1B 1482   7.293   0.811   5.280 -0.0156  0.1273 -0.1555
  139POPE   C2B 1483   6.906   0.546   5.192 -0.0692  0.0749  0.1222
  139POPE   C3B 1484   6.849   0.174   4.851 -0.0918 -0.1753 -0.0962
  139POPE   C4B 1485   6.983  -0.214   4.744 -0.1638 -0.3196 -0.0157
  140POPE   NH3 1486   1.330   0.502   5.562  0.3046  0.0166 -0.0311
  140POPE   PO4 1487   1.085   0.280   5.599  0.0166 -0.0277 -0.1209
  140POPE   GL1 1488   1.120   0.237   5.200  0.1077  0.1260  0.3583
  140POPE   GL2 1489   1.084  -0.062   5.143  0.0727  0.0880 -0.1178
  140POPE   C1A 1490   1.122   0.565   4.871  0.0653 -0.1991  0.2155
  140POPE   D2A 1491   0.674   0.782   4.844 -0.0285 -0.3839 -0.2692
  140POPE   C3A 1492   0.445   0.986   4.476 -0.0539  0.2650  0.1566
  140POPE   C4A 1493   0.157   1.242   4.193 -0.0302 -0.1351  0.3108
  140POPE   C1B 1494   1.388  -0.273   4.871  0.1387 -0.1788 -0.0514
  140POPE   C2B 1495   1.556  -0.644   4.682  0.3143  0.0612  0.0942
  140POPE   C3B 1496   1.592  -1.106   4.508  0.0750  0.1141  0.0605
  140POPE   C4B 1497   1.630  -1.319   4.046  0.1033 -0.1670 -0.0946
  141POPE   NH3 1498   3.408   1.055   5.335  0.2504  0.0019  0.3294
  141POPE   PO4 1499   3.273   0.829   5.467  0.3307  0.1332  0.1925
  141POPE   GL1 1500   3.293   0.528   5.215  0.1774 -0.0053  0.0428
  141POPE   GL2 1501   3.436   0.254   5.314 -0.0985  0.3089 -0.0575
  141POPE   C1A 1502   3.041   0.398   4.853 -0.0948  0.0507  0.1582
  141POPE   D2A 1503   3.071   0.607   4.460 -0.0653  0.1972 -0.1847
  141POPE   C3A 1504   3.273   1.003   4.319  0.2528 -0.0956 -0.1683
  141POPE   C4A 1505   3.405   1.404   4.094  0.2007 -0.0854 -0.0111
  141POPE   C1B 1506   3.485   0.050   4.939 -0.1079 -0.1656  0.3967
  141POPE   C2B 1507   3.306   0.054   4.505 -0.2996 -0.0126 -0.0014
  141POPE   C3B 1508   3.173   0.219   4.086 -0.0948  0.0225 -0.1544
  141POPE   C4B 1509   3.330   0.408   3.642  0.0597  0.0777  0.2610
  142POPE   NH3 1510   7.728   6.911   5.899 -0.2912 -0.2005 -0.0365
  142POPE   PO4 1511   7.873   6.687   5.764  0.0213  0.1654  0.0654
  142POPE   GL1 1512   7.939   6.884   5.509  0.1777  0.4100  0.3089
  142POPE   GL2 1513   7.935   7.139   5.510 -0.1308  0.0075  0.2286
  142POPE   C1A 1514   7.932   6.927   5.038 -0.3206  0.0198  0.1138
  142POPE   D2A 1515   7.889   7.316   4.766 -0.0208 -0.2809 -0.2201
  142POPE   C3A 1516   7.898   7.278   4.278 -0.0847 -0.1276  0.0638
  142POPE   C4A 1517   7.693   7.244   3.881  0.1560  0.0852 -0.2660
  142POPE   C1B 1518   7.644   7.324   5.230 -0.0052  0.2213 -0.0577
  142POPE   C2B 1519   7.260   7.247   5.075 -0.0661 -0.0200  0.2225
  142POPE   C3B 1520   6.876   7.458   4.890  0.0747 -0.0725  0.2328
  142POPE   C4B 1521   6.647   7.898   4.798  0.1275  0.1860  0.2439
  143POPE   NH3 1522   8.794   2.615   5.431 -0.0637  0.0490  0.2237
  143POPE   PO4 1523   8.894   2.729   5.164  0.2881 -0.0941 -0.0312
  143POPE   GL1 1524   8.577   2.741   4.961 -0.1063 -0.0289  0.1990
  143POPE   GL2 1525   8.783   2.930   4.709 -0.2643 -0.0807  0.1757
  143POPE   C1A 1526   8.450   2.673   4.474  0.3355  0.2857  0.1503
  143POPE   D2A 1527   8.295   2.684   4.054 -0.0334 -0.1473  0.0326
  143POPE   C3A 1528   8.206   2.361   3.775  0.0446  0.1283  0.2696
  143POPE   C4A 1529   8.023   2.029   3.447 -0.3137  0.3724  0.1307
  143POPE   C1B 1530   8.911   3.421   4.713  0.0279  0.2473  0.2123
  143POPE   C2B 1531   8.910   3.649   4.329  0.0442 -0.2726 -0.0452
  143POPE   C3B 1532   9.065   3.719   3.888 -0.1883 -0.0476  0.0179
  143POPE   C4B 1533   8.977   3.819   3.472 -0.1206 -0.1457 -0.1719
  144POPC   NC3 1534   7.790   7.435   2.297 -0.1655  0.0292  0.0350
  144POPC   PO4 1535   8.105   7.648   2.211 -0.1614  0.2317 -0.1290
  144POPC   GL1 1536   8.151   7.441   2.551  0.2225  0.2432  0.0345
  144POPC   GL2 1537   8.331   7.305   2.522  0.2558  0.1927  0.2340
  144POPC   C1A 1538   7.876   7.441   2.898 -0.2787 -0.0411 -0.2121
  144POPC   D2A 1539   7.975   7.174   3.223  0.2999 -0.0929  0.1446
  144POPC   C3A 1540   8.374   7.357   3.353 -0.2245  0.1801  0.0528
  144POPC   C4A 1541   8.656   7.101   3.679  0.0236 -0.0565 -0.2695
  144POPC   C1B 1542   8.573   7.370   2.925  0.1135  0.1790 -0.0300
  144POPC   C2B 1543   8.938   7.367   3.201  0.2753 -0.0992  0.2309
  144POPC   C3B 1544   9.017   7.575   3.607  0.2422 -0.0916 -0.0888
  144POPC   C4B 1545   9.074   7.445   4.016 -0.2339 -0.3272 -0.0154
  145POPC   NC3 1546   2.681   1.494   1.689 -0.0413 -0.3278 -0.0206
  145POPC   PO4 1547   2.936   1.199   1.779 -0.1146  0.2962 -0.1783
  145POPC   GL1 1548   2.767   1.228   2.187 -0.0433 -0.1430 -0.4862
  145POPC   GL2 1549   2.479   1.387   2.170 -0.1898  0.0584  0.2028
  145POPC   C1A 1550   2.795   1.482   2.615 -0.0475 -0.1824  0.0273
  145POPC   D2A 1551   2.847   1.567   3.098 -0.3994 -0.0674  0.0778
  145POPC   C3A 1552   2.769   1.987   3.242  0.0206 -0.1902  0.0733
  145POPC   C4A 1553   2.619   2.418   3.314  0.2630 -0.0865 -0.1690
  145POPC   C1B 1554   2.453   1.019   2.433 -0.2433 -0.3396 -0.0594
  145POPC   C2B 1555   2.336   0.677   2.674  0.1727  0.2572  0.0117
  145POPC   C3B 1556   2.060   0.305   2.801 -0.0946 -0.0530 -0.2556
  145POPC   C4B 1557   1.875  -0.021   3.026 -0.1015 -0.5071 -0.1241
  146POPC   NC3 1558   5.283   5.317   1.881 -0.0063  0.3323  0.1247
  146POPC   PO4 1559   5.374   5.052   2.147 -0.1042 -0.2406  0.0749
  146POPC   GL1 1560   5.494   4.997   2.548 -0.0379 -0.2927 -0.2655
  146POPC   GL2 1561   5.768   4.834   2.470 -0.0730  0.0741  0.0518
  146POPC   C1A 1562   5.213   5.178   2.906 -0.1827 -0.0932 -0.0739
  146POPC   D2A 1563   5.227   5.009   3.310 -0.1444 -0.1034 -0.2446
  146POPC   C3A 1564   4.887   5.143   3.635  0.0460 -0.0729 -0.0244
  146POPC   C4A 1565   4.668   5.338   3.968  0.0843  0.1756  0.3043
  146POPC   C1B 1566   6.102   4.818   2.828  0.3392 -0.0258  0.0725
  146POPC   C2B 1567   6.428   5.015   3.073  0.0450  0.2761  0.0074
  146POPC   C3B 1568   6.680   4.924   3.465  0.4697  0.0767  0.0694
  146POPC   C4B 1569   6.653   5.255   3.785  0.1927  0.0508 -0.2530
  147POPC   NC3 1570   4.479   2.335   1.847  0.0347  0.3610 -0.1014
  147POPC   PO4 1571   4.430   1.999   1.645 -0.1507 -0.0692 -0.0987
  147POPC   GL1 1572   4.441   1.910   2.012 -0.1698 -0.2152 -0.3704
  147POPC   GL2 1573   4.375   2.096   2.246  0.2486  0.1650  0.1433
  147POPC   C1A 1574   4.719   1.623   2.300  0.2921  0.0413  0.0577
  147POPC   D2A 1575   4.998   1.457   2.607  0.3388 -0.1018  0.2252
  147POPC   C3A 1576   5.075   1.006   2.728  0.1886 -0.1446 -0.0737
  147POPC   C4A 1577   5.256   0.593   2.841 -0.1131  0.0569  0.0480
  147POPC   C1B 1578   4.306   1.705   2.508 -0.0224 -0.1106 -0.1353
  147POPC   C2B 1579   4.174   1.641   2.958  0.1384 -0.1689  0.0496
  147POPC   C3B 1580   4.305   1.671   3.432 -0.1471 -0.0058 -0.1473
  147POPC   C4B 1581   4.180   1.606   3.852 -0.1217  0.0573 -0.2139
  148POPC   NC3 1582   1.929   7.975   1.136  0.2007 -0.0154  0.1260
  148POPC   PO4 1583   1.951   8.202   1.470  0.1005  0.2003  0.1326
  148POPC   GL1 1584   2.148   8.185   1.773  0.0034  0.4277 -0.0340
  148POPC   GL2 1585   2.361   7.989   1.704 -0.2366 -0.0265 -0.1655
  148POPC   C1A 1586   1.981   8.127   2.209  0.2750 -0.0842 -0.4481
  148POPC   D2A 1587   2.055   8.384   2.526 -0.2717  0.0602 -0.2209
  148POPC   C3A 1588   2.033   8.888   2.508  0.2997 -0.0005  0.4191
  148POPC   C4A 1589   1.697   9.112   2.517  0.2597  0.0189 -0.1486
  148POPC   C1B 1590   2.218   7.770   2.027 -0.1543  0.0139  0.0869
  148POPC   C2B 1591   2.168   7.648   2.511 -0.2020  0.2706 -0.0942
  148POPC   C3B 1592   2.430   7.612   2.899  0.2681 -0.0262  0.1888
  148POPC   C4B 1593   2.713   7.567   3.136  0.1120 -0.2015  0.0116
  149POPC   NC3 1594   7.658   0.182   1.809 -0.0067 -0.0628 -0.1705
  149POPC   PO4 1595   7.898  -0.127   1.900 -0.0834 -0.0715 -0.2218
  149POPC   GL1 1596   7.998   0.036   2.316 -0.0799  0.1665  0.0565
  149POPC   GL2 1597   8.025   0.319   2.219 -0.2510 -0.4875  0.0703
  149POPC   C1A 1598   7.938   0.153   2.769  0.0838  0.2066  0.0637
  149POPC   D2A 1599   7.861   0.312   3.187  0.4504  0.0122  0.1099
  149POPC   C3A 1600   7.669   0.442   3.559  0.0471  0.4008 -0.1680
  149POPC   C4A 1601   7.876   0.543   3.927 -0.0358 -0.0199  0.3783
  149POPC   C1B 1602   8.045   0.657   2.510  0.2272 -0.3983  0.1921
  149POPC   C2B 1603   8.207   0.621   2.926 -0.0850 -0.0024  0.0320
  149POPC   C3B 1604   8.598   0.496   3.078 -0.0127  0.1172 -0.2371
  149POPC   C4B 1605   9.016   0.661   2.899  0.0455  0.1326 -0.2910
  150POPC   NC3 1606   7.646   6.164   1.556 -0.1372 -0.0544 -0.3884
  150POPC   PO4 1607   7.355   6.324   1.798 -0.0628  0.0714 -0.0165
  150POPC   GL1 1608   7.239   6.413   2.161  0.2138  0.2386  0.2289
  150POPC   GL2 1609   7.018   6.558   2.119  0.0154 -0.0749  0.3880
  150POPC   C1A 1610   7.293   6.143   2.538 -0.2817  0.1142 -0.1466
  150POPC   D2A 1611   7.131   5.734   2.673 -0.0291  0.0094 -0.0030
  150POPC   C3A 1612   7.354   5.524   3.055 -0.0452  0.0696  0.2211
  150POPC   C4A 1613   7.446   5.108   3.176  0.1900  0.0867  0.1654
  150POPC   C1B 1614   6.868   6.522   2.529 -0.2001  0.0144 -0.4095
  150POPC   C2B 1615   6.877   6.546   2.998  0.1851  0.2041  0.0885
  150POPC   C3B 1616   6.874   6.323   3.424 -0.1496 -0.1593 -0.2861
  150POPC   C4B 1617   7.075   6.042   3.804  0.0780 -0.5551 -0.2003
  151POPC   NC3 1618   0.307   2.450   1.744 -0.2958 -0.2826 -0.1470
  151POPC   PO4 1619   0.725   2.412   1.769 -0.1293  0.0234 -0.2619
  151POPC   GL1 1620   1.064   2.551   2.011  0.2882  0.1525  0.2054
  151POPC   GL2 1621   1.087   2.837   1.985  0.1958 -0.2318  0.6217
  151POPC   C1A 1622   1.495   2.533   2.151 -0.1256 -0.1920  0.1881
  151POPC   D2A 1623   1.948   2.754   2.138 -0.1044 -0.0343 -0.0271
  151POPC   C3A 1624   2.347   2.746   2.398 -0.0012  0.2696 -0.0686
  151POPC   C4A 1625   2.829   2.805   2.323 -0.0724 -0.1742  0.2237
  151POPC   C1B 1626   1.027   3.235   2.290 -0.0716 -0.0262  0.0152
  151POPC   C2B 1627   0.769   3.403   2.612  0.0257  0.1034  0.0576
  151POPC   C3B 1628   0.632   3.648   2.966  0.2105  0.4287 -0.1395
  151POPC   C4B 1629   0.373   4.007   3.216  0.1188  0.4100  0.0572
  152POPC   NC3 1630   6.225   6.689   1.227 -0.1360  0.0806 -0.0639
  152POPC   PO4 1631   6.414   6.343   1.276 -0.1131 -0.0810  0.1974
  152POPC   GL1 1632   6.330   6.361   1.783 -0.0885 -0.0665 -0.2335
  152POPC   GL2 1633   6.252   6.091   1.895 -0.1840 -0.1746  0.0923
  152POPC   C1A 1634   6.444   6.473   2.241 -0.0156  0.4149 -0.1743
  152POPC   D2A 1635   6.367   6.527   2.681  0.0007  0.0547 -0.3108
  152POPC   C3A 1636   6.459   6.857   2.980 -0.0711  0.0156  0.1426
  152POPC   C4A 1637   6.520   7.128   3.320 -0.1034  0.0298 -0.2040
  152POPC   C1B 1638   6.149   5.997   2.322 -0.0901  0.1723  0.0656
  152POPC   C2B 1639   6.311   5.967   2.746 -0.3444 -0.2608 -0.1627
  152POPC   C3B 1640   6.584   5.562   2.754 -0.0675 -0.3203  0.1382
  152POPC   C4B 1641   6.665   5.208   2.452 -0.1004 -0.1019 -0.1648
  153POPC   NC3 1642   0.574   7.053   1.922  0.3566 -0.2923  0.2862
  153POPC   PO4 1643   0.905   7.317   1.882  0.1685 -0.2531  0.2219
  153POPC   GL1 1644   0.769   7.242   2.270  0.0898 -0.0676  0.5028
  153POPC   GL2 1645   0.517   7.171   2.384  0.2032 -0.0451 -0.0507
  153POPC   C1A 1646   0.860   7.289   2.714  0.2461  0.3916  0.2121
  153POPC   D2A 1647   0.905   7.603   3.090  0.1662  0.0983  0.3832
  153POPC   C3A 1648   1.104   7.634   3.511 -0.1679 -0.1506 -0.1462
  153POPC   C4A 1649   1.369   7.343   3.764 -0.1161  0.0080 -0.1780
  153POPC   C1B 1650   0.363   7.170   2.827  0.1731 -0.1067  0.0472
  153POPC   C2B 1651   0.447   7.186   3.259 -0.3242  0.0772  0.1159
  153POPC   C3B 1652   0.503   7.138   3.735  0.0601 -0.2776  0.4186
  153POPC   C4B 1653   0.885   7.126   3.990  0.0675 -0.0148 -0.3946
  154POPC   NC3 1654   6.097   0.240   1.547 -0.3529 -0.2573 -0.2062
  154POPC   PO4 1655   5.865   0.003   1.775  0.4775  0.2884 -0.0360
  154POPC   GL1 1656   5.888  -0.067   2.200 -0.0160 -0.2900 -0.1407
  154POPC   GL2 1657   6.052   0.131   2.310  0.0254  0.0306  0.0051
  154POPC   C1A 1658   5.973  -0.295   2.568  0.1734  0.1680  0.2782
  154POPC   D2A 1659   6.198  -0.462   2.975  0.2799  0.2247 -0.1660
  154POPC   C3A 1660   6.026  -0.279   3.333 -0.1324 -0.3190 -0.0920
  154POPC   C4A 1661   5.948   0.200   3.305  0.0598  0.1794 -0.0247
  154POPC   C1B 1662   6.000   0.226   2.774  0.0372 -0.1256 -0.1767
  154POPC   C2B 1663   5.662   0.496   3.021  0.0934  0.0549 -0.1913
  154POPC   C3B 1664   5.416   0.855   3.291 -0.2272  0.1914 -0.1428
  154POPC   C4B 1665   5.391   1.268   3.111  0.0599 -0.2278  0.0143
  155POPC   NC3 1666   0.234   7.806   2.297  0.2213 -0.0315  0.0985
  155POPC   PO4 1667   0.445   7.578   2.042 -0.1942  0.1093 -0.1269
  155POPC   GL1 1668   0.815   7.753   1.996  0.1009  0.1412 -0.4134
  155POPC   GL2 1669   0.855   7.700   2.270 -0.3573 -0.3402 -0.1007
  155POPC   C1A 1670   1.006   8.168   2.149 -0.1180 -0.0392 -0.1700
  155POPC   D2A 1671   1.229   8.352   2.494 -0.1146 -0.0385  0.1723
  155POPC   C3A 1672   1.249   8.272   2.923  0.0300 -0.0007 -0.0982
  155POPC   C4A 1673   1.348   8.064   3.308  0.2516 -0.1047  0.1918
  155POPC   C1B 1674   1.076   7.882   2.590 -0.0962 -0.1729  0.1227
  155POPC   C2B 1675   1.353   7.731   2.925  0.1892  0.0173  0.2657
  155POPC   C3B 1676   1.540   7.592   3.289 -0.1728  0.3031 -0.0387
  155POPC   C4B 1677   1.920   7.506   3.619  0.2325 -0.1732  0.0301
  156POPC   NC3 1678   6.024   2.051   1.089 -0.5544  0.0165 -0.1292
  156POPC   PO4 1679   5.962   1.836   1.411  0.0186  0.3247  0.3008
  156POPC   GL1 1680   6.056   1.694   1.786 -0.2968 -0.2024  0.1336
  156POPC   GL2 1681   6.225   1.888   1.827 -0.1531  0.0351 -0.1415
  156POPC   C1A 1682   5.945   1.646   2.222 -0.1397  0.1081  0.5688
  156POPC   D2A 1683   5.881   1.550   2.697 -0.0195 -0.1183  0.1098
  156POPC   C3A 1684   5.813   1.519   3.119 -0.4372  0.3943 -0.3054
  156POPC   C4A 1685   5.720   1.250   3.484  0.0474 -0.0619  0.2559
  156POPC   C1B 1686   6.581   1.643   1.997 -0.4404 -0.0783  0.0550
  156POPC   C2B 1687   6.388   1.345   2.252  0.0994  0.0437  0.3329
  156POPC   C3B 1688   6.554   0.913   2.398 -0.1081 -0.0178  0.1062
  156POPC   C4B 1689   6.470   0.439   2.342  0.1876 -0.0883  0.1980
  157POPC   NC3 1690   0.073   7.194   2.019 -0.1926  0.1562  0.1067
  157POPC   PO4 1691   0.142   6.899   2.161 -0.0809  0.2059 -0.4320
  157POPC   GL1 1692   0.217   6.836   2.536  0.2283 -0.0986 -0.0784
  157POPC   GL2 1693   0.053   6.630   2.659 -0.0436 -0.2593  0.0310
  157POPC   C1A 1694   0.528   6.612   2.802 -0.1733 -0.0137  0.1234
  157POPC   D2A 1695   0.619   6.153   3.020  0.0297  0.2719  0.1035
  157POPC   C3A 1696   0.807   5.877   3.321  0.5788  0.1588  0.0016
  157POPC   C4A 1697   0.974   5.825   3.748 -0.1963  0.0884 -0.0740
  157POPC   C1B 1698  -0.128   6.870   3.002  0.1292 -0.1778 -0.0134
  157POPC   C2B 1699   0.059   6.899   3.446 -0.0828  0.0036 -0.3191
  157POPC   C3B 1700   0.046   6.697   3.852  0.2258 -0.3107  0.0226
  157POPC   C4B 1701   0.231   6.358   4.032  0.2588  0.1347  0.1477
  158POPC   NC3 1702   3.770   8.336   1.277  0.2398 -0.1059 -0.3278
  158POPC   PO4 1703   3.785   8.706   1.411 -0.2153  0.2551 -0.0631
  158POPC   GL1 1704   3.867   8.560   1.769  0.1567  0.1047  0.1756
  158POPC   GL2 1705   3.656   8.278   1.810 -0.0786  0.1445 -0.3445
  158POPC   C1A 1706   3.682   8.645   2.178 -0.0962 -0.3115 -0.3848
  158POPC   D2A 1707   3.407   8.548   2.513 -0.1316  0.2605 -0.0076
  158POPC   C3A 1708   3.377   8.206   2.894  0.3019 -0.0655 -0.2245
  158POPC   C4A 1709   3.495   7.811   3.074 -0.1082 -0.0950  0.2381
  158POPC   C1B 1710   3.239   8.299   1.912 -0.1901  0.0613 -0.3762
  158POPC   C2B 1711   2.967   8.389   2.286 -0.0684  0.0735  0.0701
  158POPC   C3B 1712   2.893   8.451   2.730  0.3777 -0.2040  0.1212
  158POPC   C4B 1713   2.771   8.629   3.132 -0.1059  0.1938 -0.1546
  159POPC   NC3 1714   3.731   5.648   1.449  0.0497 -0.2575  0.3724
  159POPC   PO4 1715   3.552   5.947   1.695 -0.1106  0.1354  0.1802
  159POPC   GL1 1716   3.514   5.938   2.027 -0.0108 -0.1632 -0.1214
  159POPC   GL2 1717   3.609   6.055   2.280  0.0141  0.0714 -0.2436
  159POPC   C1A 1718   3.253   5.690   2.334  0.0100  0.0207  0.0471
  159POPC   D2A 1719   3.359   5.409   2.696  0.2597 -0.0948  0.3451
  159POPC   C3A 1720   3.214   5.683   2.971 -0.1232 -0.3849  0.0416
  159POPC   C4A 1721   3.207   5.746   3.474 -0.1278 -0.1763 -0.0150
  159POPC   C1B 1722   3.544   5.895   2.688 -0.0650  0.0386 -0.0485
  159POPC   C2B 1723   3.568   5.980   3.144  0.0718  0.2159 -0.0636
  159POPC   C3B 1724   3.474   6.241   3.540  0.1557  0.0056 -0.1993
  159POPC   C4B 1725   3.291   6.562   3.837 -0.2148 -0.1303 -0.1444
  160POPC   NC3 1726   7.243   7.324   1.681  0.0054  0.3588  0.1271
  160POPC   PO4 1727   7.416   7.610   1.940 -0.0682 -0.1092  0.1878
  160POPC   GL1 1728   7.376   7.751   2.216 -0.1026  0.3607 -0.1113
  160POPC   GL2 1729   7.134   7.840   2.330  0.4544  0.3210  0.0460
  160POPC   C1A 1730   7.464   7.624   2.640 -0.0554  0.1084  0.0287
  160POPC   D2A 1731   7.520   7.674   3.125 -0.5594 -0.1565  0.1970
  160POPC   C3A 1732   7.345   8.013   3.394 -0.0041  0.2582  0.0683
  160POPC   C4A 1733   7.590   8.015   3.801  0.1553 -0.0977  0.2050
  160POPC   C1B 1734   6.881   7.883   2.737 -0.1883 -0.0556 -0.2080
  160POPC   C2B 1735   6.668   8.173   3.027  0.2690  0.1065  0.0100
  160POPC   C3B 1736   6.498   8.365   3.396  0.1159 -0.1768  0.1033
  160POPC   C4B 1737   6.513   8.428   3.858  0.4100  0.0747  0.1203
  161POPC   NC3 1738   5.531   0.253   1.489 -0.0238  0.2838 -0.0880
  161POPC   PO4 1739   5.627   0.476   1.806  0.3308  0.3000 -0.1098
  161POPC   GL1 1740   5.534   0.485   2.217 -0.0251  0.1398 -0.1198
  161POPC   GL2 1741   5.538   0.741   2.346  0.4788  0.0188  0.0436
  161POPC   C1A 1742   5.538   0.126   2.527 -0.1484 -0.0096  0.2242
  161POPC   D2A 1743   5.583  -0.059   2.949 -0.2117  0.1144  0.0667
  161POPC   C3A 1744   5.247  -0.286   3.120  0.2818  0.0201  0.1053
  161POPC   C4A 1745   4.983  -0.065   3.478 -0.1182  0.1053 -0.0904
  161POPC   C1B 1746   5.995   0.645   2.500  0.4079  0.0308 -0.0234
  161POPC   C2B 1747   6.237   0.623   2.878  0.0020  0.2222 -0.5226
  161POPC   C3B 1748   6.263   0.577   3.368 -0.0720 -0.1173  0.0305
  161POPC   C4B 1749   6.644   0.407   3.571  0.1080 -0.1890 -0.2467
  162POPC   NC3 1750   1.925   7.102   1.863  0.1612 -0.0827 -0.1162
  162POPC   PO4 1751   1.942   6.681   1.820  0.1353 -0.1626  0.1706
  162POPC   GL1 1752   1.948   6.719   2.269  0.1859 -0.0770  0.2205
  162POPC   GL2 1753   1.991   7.000   2.388 -0.3927 -0.0131 -0.0200
  162POPC   C1A 1754   1.975   6.558   2.702 -0.0769 -0.0056 -0.1777
  162POPC   D2A 1755   2.023   6.658   3.138 -0.2433 -0.1300 -0.2592
  162POPC   C3A 1756   2.110   6.220   3.388  0.2325 -0.1687 -0.1238
  162POPC   C4A 1757   2.338   5.836   3.554 -0.2268  0.0923 -0.1758
  162POPC   C1B 1758   2.171   7.095   2.775 -0.0315 -0.2669 -0.0132
  162POPC   C2B 1759   2.315   7.208   3.220 -0.1968  0.2681  0.1516
  162POPC   C3B 1760   2.436   7.318   3.633  0.0746  0.1445 -0.0508
  162POPC   C4B 1761   2.774   7.523   3.875  0.2578 -0.1307 -0.3662
  163POPC   NC3 1762   1.098   8.506   1.255 -0.3618  0.0895  0.2643
  163POPC   PO4 1763   1.236   8.529   1.634  0.0692  0.1985 -0.1422
  163POPC   GL1 1764   1.375   8.636   2.027  0.0936 -0.1853 -0.0122
  163POPC   GL2 1765   1.599   8.806   2.042  0.3388  0.1051  0.0188
  163POPC   C1A 1766   1.299   8.875   2.444  0.0367 -0.3439 -0.0536
  163POPC   D2A 1767   1.187   8.834   2.904  0.0117  0.4748 -0.1136
  163POPC   C3A 1768   1.002   8.554   3.243 -0.0113 -0.1235 -0.1649
  163POPC   C4A 1769   0.743   8.715   3.543  0.0519  0.1910 -0.2304
  163POPC   C1B 1770   1.668   8.508   2.372  0.0327  0.1647  0.2419
  163POPC   C2B 1771   1.682   8.542   2.824  0.0148 -0.2117 -0.0998
  163POPC   C3B 1772   1.526   8.572   3.253  0.3094  0.1766  0.4174
  163POPC   C4B 1773   1.330   8.493   3.647 -0.0397  0.0032  0.3404
  164POPC   NC3 1774   3.396   1.425   1.571 -0.0263  0.1506 -0.1816
  164POPC   PO4 1775   3.245   1.758   1.426  0.0010  0.0050 -0.1025
  164POPC   GL1 1776   3.123   1.640   1.830  0.1176 -0.0233 -0.7360
  164POPC   GL2 1777   3.162   1.902   1.978  0.0286  0.3000  0.0479
  164POPC   C1A 1778   3.245   1.511   2.242 -0.0683 -0.0589 -0.1633
  164POPC   D2A 1779   3.283   1.618   2.683 -0.0341 -0.0943  0.2660
  164POPC   C3A 1780   3.527   1.501   3.080 -0.4239 -0.0445 -0.0451
  164POPC   C4A 1781   3.482   1.364   3.511  0.0931 -0.1678  0.1079
  164POPC   C1B 1782   2.789   1.811   2.160  0.0278 -0.2756 -0.1358
  164POPC   C2B 1783   2.430   1.869   2.417  0.1768 -0.1404 -0.0307
  164POPC   C3B 1784   2.227   2.176   2.731 -0.4383 -0.0346  0.0224
  164POPC   C4B 1785   2.120   2.301   3.113  0.2163  0.1329  0.1401
  165POPC   NC3 1786   0.573   2.884   1.669 -0.0561  0.1840  0.1948
  165POPC   PO4 1787   0.204   2.929   1.491  0.0204 -0.2172 -0.0646
  165POPC   GL1 1788   0.034   2.822   1.782 -0.2193  0.1411 -0.2335
  165POPC   GL2 1789   0.220   2.842   2.001  0.2343  0.0024 -0.2471
  165POPC   C1A 1790  -0.215   2.817   2.219  0.1500 -0.0108 -0.3635
  165POPC   D2A 1791  -0.220   2.548   2.590  0.1283 -0.0234 -0.3549
  165POPC   C3A 1792  -0.421   2.584   3.019  0.1253  0.0258 -0.0783
  165POPC   C4A 1793  -0.524   2.280   3.367 -0.1241  0.0542 -0.1283
  165POPC   C1B 1794   0.616   2.891   2.201 -0.1547 -0.0150  0.1473
  165POPC   C2B 1795   0.867   2.814   2.610  0.2143  0.1136  0.2908
  165POPC   C3B 1796   0.929   3.051   3.010  0.1613 -0.2205  0.3704
  165POPC   C4B 1797   0.889   3.310   3.363  0.0455 -0.2134  0.2880
  166POPC   NC3 1798   2.634   8.475   1.011 -0.0564 -0.2906 -0.2853
  166POPC   PO4 1799   2.849   8.784   0.840 -0.2256  0.0270 -0.0501
  166POPC   GL1 1800   2.914   8.756   1.279  0.4687  0.3671 -0.0979
  166POPC   GL2 1801   2.715   8.877   1.478  0.0141  0.1581 -0.4660
  166POPC   C1A 1802   2.828   8.365   1.491 -0.2136 -0.2771 -0.0127
  166POPC   D2A 1803   2.844   7.960   1.677 -0.0009 -0.0604  0.0095
  166POPC   C3A 1804   2.694   7.840   2.083  0.0742 -0.2655 -0.1448
  166POPC   C4A 1805   2.688   7.677   2.481  0.2641 -0.0440  0.1197
  166POPC   C1B 1806   2.810   8.693   1.895 -0.2257 -0.1646  0.3457
  166POPC   C2B 1807   3.145   8.839   2.219 -0.0776 -0.0475  0.3995
  166POPC   C3B 1808   3.182   8.975   2.667  0.0258 -0.0598  0.0337
  166POPC   C4B 1809   3.261   8.772   3.086 -0.1608 -0.1311 -0.1473
  167POPC   NC3 1810   4.323   1.501   1.590  0.0463  0.0926 -0.2258
  167POPC   PO4 1811   4.579   1.227   1.656 -0.0623 -0.1381  0.1411
  167POPC   GL1 1812   4.732   1.249   2.069 -0.0105  0.2550  0.3773
  167POPC   GL2 1813   4.700   0.999   2.218  0.1103 -0.2559 -0.2755
  167POPC   C1A 1814   5.146   1.173   2.174 -0.0350 -0.1811  0.0936
  167POPC   D2A 1815   5.455   1.212   2.583 -0.2289  0.2150  0.1968
  167POPC   C3A 1816   5.658   0.930   2.853 -0.4605  0.0861 -0.0567
  167POPC   C4A 1817   5.905   0.905   3.193  0.0538 -0.0321 -0.1869
  167POPC   C1B 1818   4.456   1.221   2.576 -0.2252  0.1771  0.1704
  167POPC   C2B 1819   4.466   1.233   3.001 -0.0591  0.0236 -0.0096
  167POPC   C3B 1820   4.557   1.236   3.477 -0.3810 -0.0634 -0.2204
  167POPC   C4B 1821   4.577   1.281   3.886 -0.1858 -0.0757 -0.1367
  168POPC   NC3 1822   1.548   4.852   0.721 -0.2428 -0.1875 -0.3310
  168POPC   PO4 1823   1.606   4.940   1.158 -0.0858  0.0706  0.1310
  168POPC   GL1 1824   1.584   4.659   1.481 -0.3054  0.1801  0.3031
  168POPC   GL2 1825   1.865   4.513   1.521 -0.1082  0.1653 -0.0580
  168POPC   C1A 1826   1.511   4.423   1.894 -0.1836  0.1696  0.0342
  168POPC   D2A 1827   1.778   4.224   2.201 -0.0918  0.3292 -0.0105
  168POPC   C3A 1828   1.795   3.771   2.166  0.0540  0.1438  0.1350
  168POPC   C4A 1829   1.633   3.437   2.453  0.1382 -0.1805 -0.1924
  168POPC   C1B 1830   2.054   4.591   1.934 -0.0401 -0.3802  0.2270
  168POPC   C2B 1831   2.163   4.525   2.346 -0.1394 -0.0535  0.1372
  168POPC   C3B 1832   2.039   4.736   2.737 -0.1759  0.2573  0.1001
  168POPC   C4B 1833   2.007   5.086   3.045 -0.0048  0.1505  0.2570
  169POPC   NC3 1834   7.710   2.147   1.315  0.2810 -0.3308  0.0755
  169POPC   PO4 1835   8.054   2.316   1.256  0.0360  0.4670  0.2010
  169POPC   GL1 1836   8.398   2.336   1.533 -0.6187  0.3006  0.0704
  169POPC   GL2 1837   8.197   2.351   1.751 -0.0796  0.0967  0.4960
  169POPC   C1A 1838   8.710   2.451   1.871 -0.1918  0.2346  0.0421
  169POPC   D2A 1839   9.025   2.350   2.195 -0.0793  0.0768 -0.1626
  169POPC   C3A 1840   9.043   2.065   2.578  0.2979  0.1838 -0.3021
  169POPC   C4A 1841   8.840   2.088   2.998  0.0796 -0.0814  0.2256
  169POPC   C1B 1842   7.848   2.285   2.053  0.3400 -0.0661 -0.2941
  169POPC   C2B 1843   7.892   2.231   2.524  0.1437 -0.3154  0.3563
  169POPC   C3B 1844   7.916   2.217   2.993  0.0912 -0.0779  0.0524
  169POPC   C4B 1845   8.035   2.572   3.300 -0.0627  0.1868  0.0338
  170POPC   NC3 1846   7.729   6.204   2.252 -0.0972 -0.1355 -0.3322
  170POPC   PO4 1847   7.935   6.177   1.952  0.4265 -0.1660 -0.0324
  170POPC   GL1 1848   8.189   6.185   2.303  0.0721 -0.1502 -0.1015
  170POPC   GL2 1849   8.295   5.938   2.461 -0.0690 -0.0375  0.0394
  170POPC   C1A 1850   7.996   6.413   2.691  0.0800  0.0934 -0.1053
  170POPC   D2A 1851   7.783   6.406   3.089  0.5693 -0.1331 -0.2005
  170POPC   C3A 1852   7.728   6.169   3.424 -0.1322 -0.3109 -0.3986
  170POPC   C4A 1853   7.496   6.316   3.806 -0.2652  0.2322 -0.0446
  170POPC   C1B 1854   8.201   5.923   2.936  0.0611 -0.2061  0.3753
  170POPC   C2B 1855   8.152   5.933   3.409  0.1715  0.2213  0.0116
  170POPC   C3B 1856   7.926   5.859   3.792 -0.0853  0.0287 -0.0713
  170POPC   C4B 1857   7.768   5.462   3.985 -0.1697  0.0327  0.5536
  171POPC   NC3 1858   1.742   3.044   1.174  0.0796 -0.1851 -0.1472
  171POPC   PO4 1859   1.386   3.036   1.295  0.0183  0.0129  0.0667
  171POPC   GL1 1860   1.454   3.172   1.711 -0.1104 -0.3388 -0.0505
  171POPC   GL2 1861   1.745   3.120   1.721  0.1663  0.0096 -0.0965
  171POPC   C1A 1862   1.527   3.020   2.125  0.1025 -0.0125 -0.0428
  171POPC   D2A 1863   1.374   2.963   2.530 -0.1002  0.0929  0.3208
  171POPC   C3A 1864   1.284   3.319   2.756  0.0505 -0.0581  0.3181
  171POPC   C4A 1865   1.139   3.577   3.075 -0.0391 -0.1439 -0.1115
  171POPC   C1B 1866   1.945   3.262   2.115 -0.2142  0.0745 -0.3001
  171POPC   C2B 1867   1.952   3.110   2.581 -0.0703 -0.1464 -0.2733
  171POPC   C3B 1868   2.313   2.940   2.842 -0.1095 -0.0179 -0.1315
  171POPC   C4B 1869   2.190   2.806   3.298 -0.0560  0.2178  0.3753
  172POPC   NC3 1870   7.372   8.624   1.774 -0.2680  0.0386  0.0644
  172POPC   PO4 1871   7.044   8.737   1.765  0.0359 -0.1342  0.2346
  172POPC   GL1 1872   7.173   8.918   2.085  0.1017  0.3013 -0.1291
  172POPC   GL2 1873   7.118   9.231   2.111 -0.2991  0.1457  0.0506
  172POPC   C1A 1874   7.128   8.792   2.527  0.3253 -0.0226  0.0550
  172POPC   D2A 1875   7.335   8.976   2.891  0.1544 -0.2127  0.0016
  172POPC   C3A 1876   7.445   8.732   3.255  0.0529  0.2239 -0.2916
  172POPC   C4A 1877   7.417   8.504   3.665  0.1642  0.0170  0.0158
  172POPC   C1B 1878   7.106   9.371   2.540  0.1492 -0.1326 -0.0289
  172POPC   C2B 1879   6.773   9.631   2.774  0.3066 -0.2186 -0.1622
  172POPC   C3B 1880   6.716   9.782   3.232 -0.0036 -0.3924  0.1640
  172POPC   C4B 1881   6.532  10.007   3.582 -0.0839 -0.1639 -0.0974
  173POPC   NC3 1882   3.232   5.327   1.755  0.1033 -0.1688  0.3941
  173POPC   PO4 1883   2.886   5.250   1.532  0.2261 -0.1267  0.0651
  173POPC   GL1 1884   2.524   5.263   1.781  0.1496 -0.0863 -0.2855
  173POPC   GL2 1885   2.442   4.994   1.603  0.1635 -0.0177  0.0075
  173POPC   C1A 1886   2.485   5.267   2.246 -0.1320 -0.0343 -0.4716
  173POPC   D2A 1887   2.411   5.268   2.724  0.4865  0.0901 -0.0818
  173POPC   C3A 1888   2.227   5.586   3.039  0.1245 -0.0342 -0.0004
  173POPC   C4A 1889   1.886   5.730   3.345  0.0194 -0.2961 -0.0273
  173POPC   C1B 1890   2.480   4.848   2.037  0.0731 -0.1878 -0.0583
  173POPC   C2B 1891   2.611   4.856   2.491  0.0400  0.0606  0.1059
  173POPC   C3B 1892   2.635   4.865   2.964 -0.0615 -0.0481 -0.2789
  173POPC   C4B 1893   2.600   4.953   3.440  0.1736  0.0983  0.2381
  174POPC   NC3 1894   1.699   5.710   1.700 -0.0528 -0.1130 -0.1042
  174POPC   PO4 1895   2.059   5.875   1.689  0.1078 -0.2362  0.0162
  174POPC   GL1 1896   2.196   5.705   2.012 -0.0156 -0.3392 -0.2289
  174POPC   GL2 1897   2.420   5.813   2.138 -0.0639  0.2401 -0.2352
  174POPC   C1A 1898   2.020   5.506   2.351  0.2046  0.0301 -0.0059
  174POPC   D2A 1899   1.850   5.493   2.756 -0.1119 -0.0708  0.2024
  174POPC   C3A 1900   1.470   5.757   2.836 -0.0172  0.0398 -0.0458
  174POPC   C4A 1901   1.131   6.016   2.924  0.1560 -0.2508  0.0260
  174POPC   C1B 1902   2.661   5.678   2.434 -0.0899 -0.5421 -0.1163
  174POPC   C2B 1903   2.696   5.783   2.908 -0.0979  0.0864 -0.0865
  174POPC   C3B 1904   2.672   5.642   3.268  0.1990 -0.2397  0.1488
  174POPC   C4B 1905   2.877   5.386   3.634  0.0154  0.3389  0.0446
  175POPC   NC3 1906   5.599   8.555   2.040  0.1620  0.2742  0.0565
  175POPC   PO4 1907   5.827   8.245   1.929 -0.0954 -0.4022  0.0115
  175POPC   GL1 1908   5.611   8.074   2.217  0.2980  0.1904  0.1955
  175POPC   GL2 1909   5.709   8.192   2.479 -0.0505  0.0482 -0.0330
  175POPC   C1A 1910   5.225   7.866   2.361 -0.0229  0.0949  0.5132
  175POPC   D2A 1911   4.792   7.854   2.408 -0.0135 -0.2121  0.1156
  175POPC   C3A 1912   4.551   7.486   2.567  0.1923  0.2821  0.2435
  175POPC   C4A 1913   4.560   7.045   2.798 -0.2494 -0.2587 -0.1116
  175POPC   C1B 1914   5.693   7.937   2.798  0.0591 -0.0026  0.1987
  175POPC   C2B 1915   5.621   7.664   3.206  0.0437  0.0365  0.1322
  175POPC   C3B 1916   5.293   7.818   3.521 -0.0596  0.0172  0.1397
  175POPC   C4B 1917   4.890   7.997   3.722  0.2565 -0.1432  0.0052
  176POPC   NC3 1918   5.785   2.933   2.367  0.2002  0.2572 -0.0519
  176POPC   PO4 1919   5.410   2.978   2.268  0.4238  0.1031  0.0422
  176POPC   GL1 1920   5.219   2.947   2.524 -0.4350  0.1175  0.4013
  176POPC   GL2 1921   4.946   2.955   2.489  0.3011  0.0568  0.0205
  176POPC   C1A 1922   5.158   2.652   2.893  0.0687  0.3552 -0.3676
  176POPC   D2A 1923   5.162   2.189   3.058 -0.1551  0.1029 -0.0690
  176POPC   C3A 1924   5.012   1.925   3.440  0.3466  0.0063  0.0428
  176POPC   C4A 1925   4.699   1.734   3.771  0.0624  0.1214  0.1734
  176POPC   C1B 1926   4.777   3.028   2.906  0.0894  0.3226 -0.1893
  176POPC   C2B 1927   4.786   2.725   3.250 -0.1423  0.1661  0.3276
  176POPC   C3B 1928   4.973   2.415   3.527  0.1283  0.0214 -0.0433
  176POPC   C4B 1929   4.962   2.393   4.028 -0.1999 -0.0619 -0.0428
  177POPC   NC3 1930   1.438   3.745   1.093 -0.0072 -0.3979  0.0982
  177POPC   PO4 1931   1.531   3.547   1.459  0.1672 -0.0426 -0.2556
  177POPC   GL1 1932   1.222   3.751   1.616  0.0783 -0.0623 -0.1557
  177POPC   GL2 1933   1.256   3.603   1.905  0.0177  0.2103 -0.0355
  177POPC   C1A 1934   1.085   4.090   1.892 -0.2181 -0.0124  0.3004
  177POPC   D2A 1935   1.090   4.448   2.224  0.0003  0.0151  0.1691
  177POPC   C3A 1936   1.034   4.325   2.643 -0.1956 -0.3732  0.3201
  177POPC   C4A 1937   0.905   4.059   3.014  0.0176 -0.1161 -0.1250
  177POPC   C1B 1938   1.319   3.856   2.275 -0.3751 -0.1246  0.0364
  177POPC   C2B 1939   1.485   3.825   2.769  0.2490 -0.2458  0.0020
  177POPC   C3B 1940   1.770   3.676   3.083 -0.1496 -0.0691  0.1914
  177POPC   C4B 1941   1.960   3.265   3.119 -0.0790 -0.0018 -0.1002
  178POPC   NC3 1942   5.647   1.960   1.777  0.2642 -0.1963  0.2350
  178POPC   PO4 1943   5.388   2.201   1.977 -0.0544 -0.0183  0.2023
  178POPC   GL1 1944   5.292   2.080   2.261  0.0058 -0.0009  0.0399
  178POPC   GL2 1945   5.440   2.239   2.469  0.1772  0.4515 -0.1824
  178POPC   C1A 1946   4.986   1.934   2.531 -0.0342 -0.1143  0.1067
  178POPC   D2A 1947   4.675   1.811   2.829 -0.0580  0.1243 -0.0493
  178POPC   C3A 1948   4.885   1.528   3.146  0.0292 -0.1541 -0.3450
  178POPC   C4A 1949   4.980   1.063   3.272  0.2942  0.1521 -0.0574
  178POPC   C1B 1950   5.660   2.539   2.798  0.0595  0.0630  0.0804
  178POPC   C2B 1951   5.938   2.840   3.034 -0.1739  0.0584 -0.0175
  178POPC   C3B 1952   6.297   3.039   3.211 -0.2048 -0.3600  0.1665
  178POPC   C4B 1953   6.709   3.087   3.323 -0.0253 -0.1053  0.2079
  179POPC   NC3 1954   8.328   4.049   1.173 -0.2802  0.0168  0.0100
  179POPC   PO4 1955   8.686   3.949   1.255 -0.0775  0.2669  0.0235
  179POPC   GL1 1956   8.673   3.931   1.726 -0.0159 -0.3070  0.3259
  179POPC   GL2 1957   8.423   3.722   1.740  0.0518  0.2250 -0.0908
  179POPC   C1A 1958   8.779   3.745   2.159  0.1932  0.0524  0.3337
  179POPC   D2A 1959   8.610   3.684   2.560 -0.2813  0.0060 -0.0120
  179POPC   C3A 1960   8.189   3.532   2.613  0.0620  0.0800  0.3321
  179POPC   C4A 1961   7.788   3.611   2.850  0.2278  0.0460  0.1065
  179POPC   C1B 1962   8.291   3.439   2.128 -0.0213 -0.0161  0.2295
  179POPC   C2B 1963   8.349   3.095   2.365  0.1993  0.3087 -0.0577
  179POPC   C3B 1964   8.398   3.005   2.789  0.0951  0.1491 -0.0252
  179POPC   C4B 1965   8.194   3.119   3.217 -0.0912 -0.1083  0.1431
  180POPC   NC3 1966   6.175   7.468   1.714  0.3401 -0.2217 -0.0105
  180POPC   PO4 1967   6.371   7.808   1.772  0.0804 -0.2852 -0.0207
  180POPC   GL1 1968   6.212   7.759   2.120  0.0931  0.1369 -0.0849
  180POPC   GL2 1969   6.163   8.042   2.258 -0.0316 -0.0807 -0.3936
  180POPC   C1A 1970   5.928   7.637   2.494 -0.1387  0.3129 -0.4146
  180POPC   D2A 1971   5.500   7.472   2.594 -0.0707  0.1422  0.0186
  180POPC   C3A 1972   5.182   7.777   2.863  0.0492  0.0021 -0.1832
  180POPC   C4A 1973   4.869   7.784   3.264 -0.1822 -0.3236 -0.2129
  180POPC   C1B 1974   6.274   8.009   2.712  0.0128 -0.1613 -0.0416
  180POPC   C2B 1975   6.088   8.029   3.178 -0.0062 -0.2050  0.2425
  180POPC   C3B 1976   6.053   8.261   3.601  0.0076  0.2636 -0.2788
  180POPC   C4B 1977   5.652   8.274   3.808  0.1418  0.1522  0.5861
  181POPC   NC3 1978   4.035   7.916   1.780 -0.1006 -0.1116  0.2709
  181POPC   PO4 1979   3.762   7.843   1.460  0.1895 -0.0048 -0.3827
  181POPC   GL1 1980   3.680   7.673   1.911 -0.1308 -0.1862 -0.1044
  181POPC   GL2 1981   3.396   7.840   2.002  0.3116  0.0431  0.1430
  181POPC   C1A 1982   3.615   7.336   2.171  0.0530  0.0372  0.0846
  181POPC   D2A 1983   3.418   6.998   2.369  0.4403  0.1813  0.2036
  181POPC   C3A 1984   3.363   6.945   2.828  0.0031  0.1151 -0.1035
  181POPC   C4A 1985   3.619   7.089   3.214  0.1405  0.0518 -0.2389
  181POPC   C1B 1986   3.113   7.949   2.394 -0.1870 -0.0397 -0.0193
  181POPC   C2B 1987   3.021   7.806   2.843  0.0091  0.3196  0.0108
  181POPC   C3B 1988   2.975   8.032   3.250  0.1378  0.0174  0.3082
  181POPC   C4B 1989   2.952   7.957   3.727 -0.0419 -0.3073  0.2176
  182POPC   NC3 1990   4.843   5.874   2.045  0.1199  0.1650  0.2391
  182POPC   PO4 1991   4.995   6.172   1.949  0.0550  0.0136  0.0757
  182POPC   GL1 1992   5.199   6.124   2.245  0.0198 -0.1492  0.3115
  182POPC   GL2 1993   5.001   6.196   2.448 -0.2914  0.1262  0.1093
  182POPC   C1A 1994   5.397   5.987   2.648 -0.5552 -0.0970 -0.1605
  182POPC   D2A 1995   5.516   6.040   3.089  0.0128  0.0604 -0.2437
  182POPC   C3A 1996   5.222   6.360   3.375  0.0901 -0.1595  0.1073
  182POPC   C4A 1997   5.002   6.376   3.768  0.0273  0.1651  0.1478
  182POPC   C1B 1998   4.806   6.385   2.804  0.0631 -0.4925 -0.0556
  182POPC   C2B 1999   4.750   6.458   3.292  0.2856  0.0506 -0.0889
  182POPC   C3B 2000   4.553   6.334   3.669 -0.0642 -0.0214 -0.0854
  182POPC   C4B 2001   4.171   6.165   3.910  0.2244 -0.0867  0.0364
  183POPC   NC3 2002   0.459   5.504   1.337  0.4707 -0.1311 -0.1451
  183POPC   PO4 2003   0.339   5.141   1.340  0.0826  0.1116  0.0018
  183POPC   GL1 2004   0.497   5.266   1.756  0.1286  0.2154  0.1067
  183POPC   GL2 2005   0.739   5.361   1.869  0.3007  0.0060  0.0890
  183POPC   C1A 2006   0.321   5.326   2.200  0.0510  0.2532 -0.0601
  183POPC   D2A 2007  -0.020   5.552   2.478  0.1013  0.0534  0.0407
  183POPC   C3A 2008  -0.271   5.634   2.809 -0.3906 -0.0814  0.0602
  183POPC   C4A 2009  -0.380   5.775   3.201 -0.1817  0.0129 -0.0674
  183POPC   C1B 2010   0.807   5.323   2.266 -0.0132 -0.1425 -0.3093
  183POPC   C2B 2011   0.504   5.139   2.593 -0.1644 -0.0519  0.0352
  183POPC   C3B 2012   0.049   5.182   2.760 -0.0683 -0.0358  0.5536
  183POPC   C4B 2013  -0.044   5.350   3.127  0.3455  0.1815  0.1320
  184POPC   NC3 2014   4.296   3.703   1.891  0.2373 -0.2576 -0.0328
  184POPC   PO4 2015   4.573   3.986   1.986  0.2496 -0.0932  0.0478
  184POPC   GL1 2016   4.503   4.212   2.286 -0.1654  0.3456 -0.0643
  184POPC   GL2 2017   4.530   4.036   2.570  0.3296  0.3308  0.0801
  184POPC   C1A 2018   4.559   4.536   2.597  0.0366 -0.0570 -0.0272
  184POPC   D2A 2019   4.275   4.804   2.812  0.1583  0.1860  0.0817
  184POPC   C3A 2020   4.220   5.204   3.031  0.0661  0.1164  0.1745
  184POPC   C4A 2021   4.424   5.644   3.087 -0.3372 -0.0991 -0.1197
  184POPC   C1B 2022   4.362   3.827   2.947  0.1803  0.0829 -0.1606
  184POPC   C2B 2023   4.043   3.920   3.235 -0.0795 -0.0363 -0.1173
  184POPC   C3B 2024   3.639   3.826   3.412  0.2241  0.1245  0.0199
  184POPC   C4B 2025   3.214   4.148   3.270  0.0170  0.0632 -0.2075
  185POPC   NC3 2026   5.614   3.146   1.824  0.0505  0.1025 -0.0054
  185POPC   PO4 2027   5.824   2.872   1.592 -0.1499 -0.1102 -0.1179
  185POPC   GL1 2028   5.919   2.657   1.999  0.1720  0.0938  0.0151
  185POPC   GL2 2029   5.945   2.317   2.024 -0.1845  0.1618 -0.0587
  185POPC   C1A 2030   6.202   2.613   2.326 -0.2217  0.0368 -0.3055
  185POPC   D2A 2031   6.512   2.899   2.601  0.0786  0.5086  0.1893
  185POPC   C3A 2032   6.658   2.684   3.009  0.3257  0.2504 -0.3416
  185POPC   C4A 2033   6.569   2.503   3.428 -0.0189 -0.0058 -0.1915
  185POPC   C1B 2034   5.898   2.182   2.415  0.0761  0.1278  0.4063
  185POPC   C2B 2035   5.871   2.002   2.827 -0.0220 -0.0906 -0.1218
  185POPC   C3B 2036   6.053   1.923   3.252 -0.2210 -0.0353  0.1885
  185POPC   C4B 2037   6.421   1.870   3.502  0.1504  0.1829 -0.0608
  186POPC   NC3 2038   6.999   0.549   1.442  0.2094  0.3909  0.2683
  186POPC   PO4 2039   6.865   0.861   1.535 -0.1830  0.0512 -0.0269
  186POPC   GL1 2040   6.860   0.974   1.886  0.2489  0.5068  0.3265
  186POPC   GL2 2041   6.984   0.803   2.065 -0.1207  0.0889  0.0306
  186POPC   C1A 2042   6.923   1.300   2.216 -0.2416  0.2391  0.4442
  186POPC   D2A 2043   6.717   1.610   2.548 -0.0082 -0.2500 -0.4503
  186POPC   C3A 2044   6.974   1.807   2.898  0.0647  0.0776 -0.2047
  186POPC   C4A 2045   6.883   1.933   3.360  0.1212  0.0403 -0.1051
  186POPC   C1B 2046   7.115   0.879   2.535  0.3266  0.3877 -0.2138
  186POPC   C2B 2047   7.181   0.819   2.994  0.1604 -0.0544 -0.2284
  186POPC   C3B 2048   7.100   1.073   3.428  0.1671 -0.2632 -0.2440
  186POPC   C4B 2049   7.367   1.322   3.738  0.0387  0.0635 -0.1776
  187POPC   NC3 2050   2.834   4.857   1.262 -0.1441  0.0925  0.0285
  187POPC   PO4 2051   2.680   4.492   1.258  0.3836  0.0370  0.1111
  187POPC   GL1 2052   2.721   4.521   1.660 -0.0172  0.0821  0.4821
  187POPC   GL2 2053   2.899   4.747   1.744  0.2481  0.0526  0.0542
  187POPC   C1A 2054   2.619   4.409   2.096 -0.0730  0.2567  0.0444
  187POPC   D2A 2055   2.602   4.232   2.455  0.2190  0.1119 -0.3261
  187POPC   C3A 2056   2.387   4.383   2.829  0.0491  0.2213 -0.1180
  187POPC   C4A 2057   2.252   4.674   3.150  0.0437 -0.2542 -0.0215
  187POPC   C1B 2058   2.947   5.008   2.144 -0.1964 -0.0569  0.0412
  187POPC   C2B 2059   2.875   5.239   2.506 -0.0471  0.1172  0.2237
  187POPC   C3B 2060   2.874   5.328   2.948 -0.1673  0.0924 -0.0969
  187POPC   C4B 2061   3.164   5.169   3.264  0.1054  0.3654  0.1291
  188POPC   NC3 2062   2.795   6.595   1.842 -0.0214  0.3187 -0.1028
  188POPC   PO4 2063   3.159   6.611   2.021  0.3690  0.1017 -0.0956
  188POPC   GL1 2064   3.138   6.675   2.411  0.2132 -0.2188  0.0088
  188POPC   GL2 2065   3.288   6.463   2.454 -0.0559  0.0280 -0.0293
  188POPC   C1A 2066   2.937   6.619   2.830 -0.1560  0.1523 -0.0012
  188POPC   D2A 2067   2.613   6.343   3.044  0.0008 -0.0666  0.0018
  188POPC   C3A 2068   2.298   6.162   2.744 -0.1462 -0.2374 -0.1037
  188POPC   C4A 2069   2.234   6.239   2.293  0.1610 -0.1729 -0.0078
  188POPC   C1B 2070   3.488   6.465   2.864 -0.1374 -0.0245  0.0198
  188POPC   C2B 2071   3.355   6.629   3.248 -0.0229 -0.0155  0.0740
  188POPC   C3B 2072   2.874   6.619   3.378 -0.0895  0.0268  0.1598
  188POPC   C4B 2073   2.766   6.898   3.774  0.1188 -0.2194 -0.0375
  189POPC   NC3 2074   6.882   2.002   1.480  0.1189  0.1733 -0.0956
  189POPC   PO4 2075   7.247   1.821   1.458  0.0925 -0.0195  0.1286
  189POPC   GL1 2076   7.337   2.072   1.746  0.5123 -0.1022 -0.1259
  189POPC   GL2 2077   7.639   1.993   1.774  0.2654  0.2643 -0.1169
  189POPC   C1A 2078   7.329   2.287   2.150 -0.0661  0.1511  0.1053
  189POPC   D2A 2079   7.300   2.166   2.587 -0.2963  0.0923  0.1970
  189POPC   C3A 2080   7.553   1.805   2.813  0.1207 -0.0085  0.1218
  189POPC   C4A 2081   7.746   1.457   2.578  0.0171 -0.0100  0.0902
  189POPC   C1B 2082   7.535   1.866   2.209  0.2910  0.3581 -0.2428
  189POPC   C2B 2083   7.246   1.604   2.448  0.0165  0.3726  0.0568
  189POPC   C3B 2084   7.067   1.302   2.817  0.4574  0.0201 -0.0622
  189POPC   C4B 2085   6.693   1.103   2.872 -0.0919 -0.1920  0.0861
  190POPC   NC3 2086   5.224   0.756   1.872 -0.0202 -0.0950  0.0366
  190POPC   PO4 2087   5.022   0.404   1.933 -0.1763  0.2692 -0.0325
  190POPC   GL1 2088   4.830   0.575   2.267  0.1920  0.0334 -0.0232
  190POPC   GL2 2089   5.066   0.557   2.436 -0.2888  0.0645 -0.1732
  190POPC   C1A 2090   4.615   0.717   2.630 -0.1962 -0.0623  0.1570
  190POPC   D2A 2091   4.639   0.740   3.028 -0.1293  0.3209 -0.4699
  190POPC   C3A 2092   4.966   0.528   3.311 -0.0274 -0.2361 -0.0566
  190POPC   C4A 2093   5.321   0.285   3.451 -0.3747  0.1511 -0.0980
  190POPC   C1B 2094   4.852   0.316   2.776  0.2276  0.0539 -0.3403
  190POPC   C2B 2095   4.708   0.026   3.074  0.4343 -0.1919  0.6065
  190POPC   C3B 2096   4.483  -0.234   3.421  0.4602 -0.0934 -0.1864
  190POPC   C4B 2097   4.371  -0.561   3.705 -0.2708  0.0857 -0.0355
  191POPC   NC3 2098   3.488   3.404   0.900 -0.0901  0.1615  0.0030
  191POPC   PO4 2099   3.669   3.612   1.194 -0.2264 -0.1513  0.0220
  191POPC   GL1 2100   3.581   3.781   1.501 -0.2417 -0.1840  0.2828
  191POPC   GL2 2101   3.421   3.652   1.714  0.0735  0.2813 -0.0629
  191POPC   C1A 2102   3.639   4.237   1.662 -0.3284  0.1137 -0.4326
  191POPC   D2A 2103   3.625   4.437   2.086 -0.2293 -0.2161 -0.2890
  191POPC   C3A 2104   3.491   4.105   2.359 -0.0122 -0.0042  0.0339
  191POPC   C4A 2105   3.254   4.108   2.784 -0.0198  0.2138 -0.0106
  191POPC   C1B 2106   3.314   3.748   2.155  0.1443  0.2513 -0.0122
  191POPC   C2B 2107   2.960   3.832   2.460  0.5631  0.1792 -0.0542
  191POPC   C3B 2108   2.635   3.854   2.758 -0.0503 -0.1897 -0.1309
  191POPC   C4B 2109   2.727   3.999   3.168  0.1881  0.0984  0.0585
  192POPC   NC3 2110   3.613   1.810   1.782  0.1411  0.0907  0.2088
  192POPC   PO4 2111   4.025   1.805   1.877 -0.0384 -0.0047  0.1267
  192POPC   GL1 2112   3.900   1.864   2.207 -0.1358 -0.0453  0.1333
  192POPC   GL2 2113   3.612   2.006   2.261 -0.4039 -0.1359  0.0015
  192POPC   C1A 2114   4.025   2.146   2.568 -0.1526  0.0675 -0.3036
  192POPC   D2A 2115   4.121   2.242   3.000 -0.3028  0.2584 -0.1610
  192POPC   C3A 2116   4.263   2.609   3.175 -0.1214  0.2173  0.2151
  192POPC   C4A 2117   4.155   2.908   3.497 -0.1968 -0.1407 -0.1704
  192POPC   C1B 2118   3.169   2.061   2.404 -0.2394  0.0670  0.1360
  192POPC   C2B 2119   2.839   1.982   2.734 -0.1308  0.2176 -0.1995
  192POPC   C3B 2120   2.467   1.778   2.944  0.3103  0.1694  0.1798
  192POPC   C4B 2121   2.180   1.408   3.069  0.0918 -0.1578 -0.2760
  193POPC   NC3 2122   3.183   0.322   1.435 -0.0153  0.1840 -0.0963
  193POPC   PO4 2123   3.514   0.138   1.535  0.3870 -0.1757  0.3719
  193POPC   GL1 2124   3.293   0.077   1.820 -0.1423 -0.0853  0.2215
  193POPC   GL2 2125   3.489   0.159   2.052 -0.0300  0.0360 -0.0130
  193POPC   C1A 2126   2.867   0.268   1.831  0.0558  0.0941  0.1948
  193POPC   D2A 2127   2.544   0.518   2.065  0.0384  0.1339  0.0385
  193POPC   C3A 2128   2.164   0.394   2.279  0.3738  0.0198 -0.1592
  193POPC   C4A 2129   1.904   0.121   2.079 -0.2541  0.2837  0.2125
  193POPC   C1B 2130   3.535   0.299   2.492 -0.1028 -0.1135 -0.0435
  193POPC   C2B 2131   3.277   0.488   2.811 -0.0243 -0.1068 -0.1289
  193POPC   C3B 2132   3.066   0.256   3.085 -0.3163 -0.2780 -0.2081
  193POPC   C4B 2133   2.929  -0.024   3.451 -0.3199 -0.2534 -0.1506
  194POPC   NC3 2134   4.539   5.212   1.206 -0.3651  0.0569 -0.2491
  194POPC   PO4 2135   4.208   5.410   1.344  0.0372 -0.3029 -0.0791
  194POPC   GL1 2136   4.029   5.432   1.825 -0.1004  0.1037 -0.2464
  194POPC   GL2 2137   3.765   5.571   1.961 -0.1977  0.3252  0.1677
  194POPC   C1A 2138   4.129   5.178   2.235 -0.0079 -0.1938  0.0728
  194POPC   D2A 2139   4.547   5.158   2.423 -0.3072  0.0143  0.0264
  194POPC   C3A 2140   4.700   5.295   2.802  0.2010 -0.0035  0.1185
  194POPC   C4A 2141   4.834   5.435   3.197  0.0151 -0.1336 -0.3028
  194POPC   C1B 2142   3.750   5.531   2.446 -0.3195  0.0363  0.1839
  194POPC   C2B 2143   3.827   5.157   2.711 -0.0162  0.2998 -0.3812
  194POPC   C3B 2144   3.594   4.938   3.080 -0.0680 -0.1859 -0.1980
  194POPC   C4B 2145   3.532   4.813   3.532  0.2097 -0.0726  0.2017
  195POPC   NC3 2146   6.829   5.243   1.823  0.5002  0.0605  0.0003
  195POPC   PO4 2147   7.174   5.427   1.678  0.0389 -0.2388 -0.0413
  195POPC   GL1 2148   7.265   5.345   2.078  0.2695  0.1039 -0.1850
  195POPC   GL2 2149   7.112   5.272   2.272  0.0536 -0.2744 -0.0454
  195POPC   C1A 2150   7.496   5.591   2.367  0.1206  0.1723 -0.1180
  195POPC   D2A 2151   7.888   5.652   2.605  0.2428  0.3506 -0.1104
  195POPC   C3A 2152   7.724   5.989   2.898 -0.0867 -0.2558  0.1662
  195POPC   C4A 2153   7.287   6.087   3.093  0.1211  0.0040  0.0719
  195POPC   C1B 2154   7.194   5.111   2.681  0.0258  0.1443  0.1737
  195POPC   C2B 2155   6.948   5.163   2.968  0.1658  0.1439 -0.2305
  195POPC   C3B 2156   6.979   5.409   3.414 -0.0975  0.1081 -0.0451
  195POPC   C4B 2157   7.147   5.506   3.850  0.1232 -0.1852 -0.0274
  196POPC   NC3 2158   5.744   5.946   1.919  0.1416  0.0388 -0.0291
  196POPC   PO4 2159   5.476   6.062   1.653  0.0445  0.0094  0.2240
  196POPC   GL1 2160   5.520   6.285   2.046 -0.2455 -0.4708 -0.2282
  196POPC   GL2 2161   5.837   6.345   2.148  0.0668  0.2145 -0.1860
  196POPC   C1A 2162   5.421   6.501   2.471 -0.1559 -0.2578  0.3181
  196POPC   D2A 2163   5.309   6.421   2.851  0.0764  0.1078 -0.0187
  196POPC   C3A 2164   5.589   6.560   3.189 -0.6977  0.0234 -0.0205
  196POPC   C4A 2165   5.924   6.425   3.543  0.1226 -0.1798 -0.0364
  196POPC   C1B 2166   5.864   6.292   2.648 -0.0897 -0.2502 -0.1868
  196POPC   C2B 2167   6.040   6.336   3.083  0.1801  0.1564  0.0504
  196POPC   C3B 2168   6.425   6.505   3.296 -0.2967 -0.1609  0.0487
  196POPC   C4B 2169   6.726   6.720   3.604  0.1033 -0.1326 -0.5060
  197POPC   NC3 2170   1.277   2.193   1.784 -0.0207 -0.0966 -0.1869
  197POPC   PO4 2171   1.025   1.912   1.836  0.2968  0.1068  0.1027
  197POPC   GL1 2172   0.939   2.132   2.139  0.1037 -0.3517 -0.1672
  197POPC   GL2 2173   1.142   2.231   2.301  0.0267 -0.0530  0.3387
  197POPC   C1A 2174   0.602   2.403   2.405 -0.2979  0.0593  0.0717
  197POPC   D2A 2175   0.313   2.669   2.610  0.1671  0.2309 -0.1490
  197POPC   C3A 2176   0.121   2.608   3.065  0.1495 -0.0559  0.0722
  197POPC   C4A 2177   0.003   2.298   3.415  0.3228 -0.3608  0.0108
  197POPC   C1B 2178   1.370   2.457   2.639  0.1970  0.1840  0.0177
  197POPC   C2B 2179   1.219   2.610   3.059  0.1564 -0.0342  0.1219
  197POPC   C3B 2180   1.093   2.515   3.509  0.3337 -0.1456 -0.3045
  197POPC   C4B 2181   0.754   2.787   3.750 -0.1744  0.0029  0.3021
  198POPC   NC3 2182   0.457   1.257   1.655 -0.0038 -0.1845  0.0579
  198POPC   PO4 2183   0.225   1.512   1.454 -0.1464 -0.0981 -0.1754
  198POPC   GL1 2184   0.288   1.663   1.842  0.1587 -0.3573 -0.0990
  198POPC   GL2 2185   0.610   1.637   1.928  0.0244  0.0459 -0.2023
  198POPC   C1A 2186   0.004   1.665   2.186  0.0599 -0.0378 -0.4396
  198POPC   D2A 2187  -0.359   1.773   2.505  0.0834  0.0457 -0.1731
  198POPC   C3A 2188  -0.602   2.153   2.632  0.1007  0.0462 -0.1666
  198POPC   C4A 2189  -0.820   2.584   2.706  0.2144 -0.1132  0.1306
  198POPC   C1B 2190   0.523   1.715   2.378 -0.1184 -0.0392  0.2374
  198POPC   C2B 2191   0.652   1.904   2.791  0.0885 -0.0071 -0.1436
  198POPC   C3B 2192   0.468   2.106   3.186 -0.3485 -0.0578  0.1362
  198POPC   C4B 2193   0.478   2.459   3.498  0.1867 -0.0770 -0.3291
  199POPC   NC3 2194   1.000   6.623   2.122 -0.1309 -0.1070  0.0206
  199POPC   PO4 2195   1.023   6.803   1.758 -0.2714 -0.2048 -0.1538
  199POPC   GL1 2196   1.186   6.994   2.033 -0.5254  0.0294  0.0836
  199POPC   GL2 2197   1.498   6.773   2.015  0.0023  0.1773 -0.3466
  199POPC   C1A 2198   1.296   7.156   2.428  0.2502  0.4964 -0.1879
  199POPC   D2A 2199   1.263   7.271   2.921  0.1533  0.2101 -0.1422
  199POPC   C3A 2200   1.388   6.915   3.247 -0.1114 -0.1223 -0.2727
  199POPC   C4A 2201   1.626   6.560   3.418 -0.0521  0.1395 -0.0218
  199POPC   C1B 2202   1.528   6.717   2.486  0.2996  0.0726  0.1549
  199POPC   C2B 2203   1.638   7.002   2.819 -0.1770 -0.0295  0.1995
  199POPC   C3B 2204   1.789   7.206   3.194 -0.3180 -0.1336  0.2721
  199POPC   C4B 2205   1.728   7.059   3.575 -0.1711  0.2552  0.1655
  200POPC   NC3 2206   7.237   3.918   1.834 -0.1474 -0.1370 -0.0041
  200POPC   PO4 2207   7.477   4.228   1.725 -0.2570  0.3233  0.2107
  200POPC   GL1 2208   7.501   4.146   2.123 -0.1344 -0.1717 -0.0871
  200POPC   GL2 2209   7.291   4.199   2.358 -0.1315 -0.1801 -0.1400
  200POPC   C1A 2210   7.864   4.199   2.442  0.4720 -0.0581  0.0102
  200POPC   D2A 2211   8.113   4.041   2.822  0.0923 -0.3389 -0.2304
  200POPC   C3A 2212   8.320   3.728   3.097 -0.1850 -0.2084 -0.1813
  200POPC   C4A 2213   8.603   3.342   3.132 -0.0039 -0.0477 -0.0654
  200POPC   C1B 2214   7.268   3.832   2.653 -0.1647 -0.0773 -0.1377
  200POPC   C2B 2215   7.383   3.820   3.127 -0.2141 -0.2660  0.0485
  200POPC   C3B 2216   7.692   3.726   3.427 -0.0220  0.1625  0.0543
  200POPC   C4B 2217   8.045   3.546   3.528 -0.0955 -0.1972 -0.0820
  201POPC   NC3 2218   2.504   2.727   1.218 -0.5572  0.4402  0.0738
  201POPC   PO4 2219   2.730   2.555   1.533  0.4232  0.1908 -0.5727
  201POPC   GL1 2220   2.651   2.518   1.927  0.2689  0.0956  0.0660
  201POPC   GL2 2221   2.893   2.280   2.017 -0.0739 -0.0528 -0.0457
  201POPC   C1A 2222   2.264   2.274   2.084 -0.2062 -0.1094 -0.2104
  201POPC   D2A 2223   1.865   2.252   2.347 -0.0907 -0.0313 -0.0802
  201POPC   C3A 2224   1.856   2.602   2.725  0.1746  0.2248  0.1388
  201POPC   C4A 2225   1.626   2.978   2.958 -0.4082 -0.1000  0.2003
  201POPC   C1B 2226   2.703   2.326   2.398 -0.1507 -0.1267 -0.0330
  201POPC   C2B 2227   2.659   2.564   2.760 -0.1018 -0.1328  0.2619
  201POPC   C3B 2228   2.680   2.863   3.148  0.0098 -0.2788 -0.1578
  201POPC   C4B 2229   2.463   3.272   3.202 -0.0609  0.0767 -0.2629
  202POPC   NC3 2230   4.001   7.023   1.935  0.2420  0.1079 -0.1085
  202POPC   PO4 2231   4.173   6.719   2.003  0.0864  0.2724  0.3656
  202POPC   GL1 2232   3.992   6.448   2.259  0.0040 -0.1189  0.0580
  202POPC   GL2 2233   3.829   6.656   2.371 -0.1926  0.0932 -0.2094
  202POPC   C1A 2234   3.961   6.208   2.644  0.1097 -0.0159 -0.2619
  202POPC   D2A 2235   3.981   6.327   3.057  0.0889 -0.2378  0.1094
  202POPC   C3A 2236   3.904   6.730   3.302 -0.1655  0.0397  0.1698
  202POPC   C4A 2237   3.808   7.011   3.706 -0.1817 -0.0995 -0.1230
  202POPC   C1B 2238   3.889   6.836   2.820 -0.1897  0.1464 -0.1999
  202POPC   C2B 2239   4.079   7.175   3.077  0.1834 -0.0690  0.0089
  202POPC   C3B 2240   4.068   7.460   3.409  0.0230  0.1330  0.2907
  202POPC   C4B 2241   4.141   7.675   3.814 -0.2084  0.0358  0.0611
  203POPC   NC3 2242   6.651   7.979   2.206  0.2360  0.3515 -0.1774
  203POPC   PO4 2243   6.878   7.878   1.875 -0.2707 -0.1855  0.3107
  203POPC   GL1 2244   6.852   7.580   2.078 -0.1474 -0.1540  0.1918
  203POPC   GL2 2245   6.573   7.489   2.090  0.0113 -0.2913 -0.2864
  203POPC   C1A 2246   7.038   7.394   2.451  0.0240  0.0065 -0.2425
  203POPC   D2A 2247   7.310   7.156   2.779 -0.3567 -0.1011 -0.0824
  203POPC   C3A 2248   7.055   6.989   3.206 -0.0580 -0.0458  0.0773
  203POPC   C4A 2249   6.925   7.165   3.597 -0.1625 -0.0909  0.1252
  203POPC   C1B 2250   6.556   7.576   2.498  0.0486 -0.2124  0.0792
  203POPC   C2B 2251   6.448   7.586   2.939 -0.0938 -0.2609 -0.3963
  203POPC   C3B 2252   6.475   7.636   3.425 -0.0001 -0.2412 -0.1681
  203POPC   C4B 2253   6.424   7.964   3.715 -0.0839 -0.0872 -0.2352
  204POPC   NC3 2254   4.604   3.065   2.141 -0.1027  0.0407  0.0443
  204POPC   PO4 2255   4.713   3.428   2.007  0.0713 -0.0747  0.1566
  204POPC   GL1 2256   4.572   3.578   2.364 -0.3067  0.4286  0.1043
  204POPC   GL2 2257   4.536   3.357   2.564 -0.0908 -0.2766  0.2395
  204POPC   C1A 2258   4.172   3.670   2.507  0.1696 -0.1117  0.0607
  204POPC   D2A 2259   3.687   3.698   2.592 -0.0377 -0.3915  0.0887
  204POPC   C3A 2260   3.715   4.024   2.884 -0.0014  0.0936  0.2589
  204POPC   C4A 2261   3.683   4.410   3.110 -0.0893 -0.4443  0.0297
  204POPC   C1B 2262   4.719   3.495   3.013 -0.2971  0.1341 -0.3290
  204POPC   C2B 2263   4.948   3.475   3.436  0.1202  0.1251 -0.1573
  204POPC   C3B 2264   5.127   3.067   3.520  0.0765 -0.2826  0.1832
  204POPC   C4B 2265   5.251   2.741   3.801  0.0072  0.0527  0.2434
  205POPC   NC3 2266   7.971   3.887   1.502  0.0460  0.0958  0.1758
  205POPC   PO4 2267   8.142   3.503   1.390 -0.1108 -0.1530  0.0891
  205POPC   GL1 2268   7.981   3.369   1.756  0.1536 -0.1278 -0.2225
  205POPC   GL2 2269   7.717   3.536   1.814 -0.2223 -0.1562  0.2386
  205POPC   C1A 2270   8.017   2.980   1.902 -0.4032  0.0041 -0.1592
  205POPC   D2A 2271   8.000   2.729   2.278  0.1328 -0.1198 -0.0934
  205POPC   C3A 2272   8.395   2.496   2.249 -0.1480 -0.2478  0.3569
  205POPC   C4A 2273   8.309   2.033   2.137 -0.2535 -0.1359  0.0357
  205POPC   C1B 2274   7.450   3.616   2.204 -0.0920 -0.1648  0.1319
  205POPC   C2B 2275   7.401   3.362   2.534  0.0983  0.1657  0.1007
  205POPC   C3B 2276   7.381   2.995   2.806 -0.0781 -0.0931  0.3261
  205POPC   C4B 2277   7.129   2.779   3.100 -0.0868 -0.0350 -0.0953
  206POPC   NC3 2278   6.550   4.332   1.612  0.2637  0.5126 -0.1310
  206POPC   PO4 2279   6.799   4.023   1.628 -0.1791  0.1433  0.0745
  206POPC   GL1 2280   6.728   4.001   1.959 -0.2498  0.1600 -0.1852
  206POPC   GL2 2281   6.752   4.264   2.097 -0.0364 -0.0221  0.2438
  206POPC   C1A 2282   6.831   3.745   2.355  0.1606 -0.1502  0.1995
  206POPC   D2A 2283   6.799   3.782   2.798 -0.3063 -0.2288  0.1132
  206POPC   C3A 2284   6.542   3.360   2.798  0.0321  0.1136 -0.2196
  206POPC   C4A 2285   6.140   3.218   2.795  0.1927 -0.0829 -0.1960
  206POPC   C1B 2286   6.850   4.221   2.531  0.2220 -0.1220 -0.1206
  206POPC   C2B 2287   7.071   4.218   2.956  0.3105  0.0516  0.3917
  206POPC   C3B 2288   7.218   4.162   3.374  0.0622 -0.1452 -0.0733
  206POPC   C4B 2289   7.341   4.409   3.792  0.0368 -0.1070 -0.0642
  207POPC   NC3 2290   7.357   5.087   1.362  0.1300  0.0324  0.0904
  207POPC   PO4 2291   7.030   4.898   1.531 -0.0571  0.1508  0.0713
  207POPC   GL1 2292   7.184   4.916   1.941  0.1957 -0.0122 -0.0685
  207POPC   GL2 2293   7.273   4.615   2.105  0.1260 -0.1406 -0.1770
  207POPC   C1A 2294   7.518   5.022   2.266  0.1894  0.0642  0.1172
  207POPC   D2A 2295   7.670   5.075   2.690 -0.0456  0.0409 -0.1370
  207POPC   C3A 2296   7.895   4.964   3.100 -0.0715 -0.0771  0.0983
  207POPC   C4A 2297   8.116   4.651   3.365  0.0398  0.1473  0.2894
  207POPC   C1B 2298   6.927   4.771   2.474 -0.0315 -0.0795 -0.0083
  207POPC   C2B 2299   6.787   4.717   2.948  0.1389 -0.1276 -0.1152
  207POPC   C3B 2300   6.758   4.485   3.283 -0.0794 -0.1184 -0.2235
  207POPC   C4B 2301   6.846   4.507   3.740  0.1832 -0.1112  0.4246
  208POPC   NC3 2302   5.994   7.072   1.502  0.2125  0.2999 -0.0823
  208POPC   PO4 2303   5.741   7.237   1.757 -0.0593  0.0440  0.1025
  208POPC   GL1 2304   5.621   7.006   2.089  0.0895  0.0547  0.0682
  208POPC   GL2 2305   5.441   6.766   2.056 -0.0560 -0.1558 -0.4065
  208POPC   C1A 2306   5.907   6.815   2.441 -0.0102  0.1905  0.1856
  208POPC   D2A 2307   5.914   6.788   2.862 -0.1603 -0.0341 -0.0865
  208POPC   C3A 2308   6.068   6.866   3.285 -0.0538 -0.1678 -0.1311
  208POPC   C4A 2309   6.100   6.981   3.726 -0.2121  0.0142 -0.0344
  208POPC   C1B 2310   5.390   6.992   2.472 -0.0526 -0.2127  0.0643
  208POPC   C2B 2311   5.538   7.120   2.921 -0.1018 -0.0178  0.1108
  208POPC   C3B 2312   5.566   7.200   3.392 -0.0173 -0.1487  0.5458
  208POPC   C4B 2313   5.697   7.298   3.773  0.2477 -0.2080 -0.3035
  209POPC   NC3 2314   0.966   5.774   1.521 -0.1259  0.1525 -0.1705
  209POPC   PO4 2315   0.944   5.803   1.903  0.1219  0.0263 -0.0409
  209POPC   GL1 2316   1.004   5.928   2.289  0.1285  0.0750 -0.2599
  209POPC   GL2 2317   0.752   5.785   2.371  0.2153  0.0384 -0.0417
  209POPC   C1A 2318   0.858   6.322   2.505 -0.2524 -0.1132  0.2862
  209POPC   D2A 2319   1.019   6.784   2.628 -0.1150  0.2330 -0.1590
  209POPC   C3A 2320   0.854   6.968   3.064 -0.0109 -0.0340  0.1298
  209POPC   C4A 2321   0.929   7.143   3.498 -0.0414  0.2512  0.2406
  209POPC   C1B 2322   0.878   5.533   2.730  0.5522  0.1931  0.0000
  209POPC   C2B 2323   1.135   5.514   3.100  0.0709  0.2290 -0.0239
  209POPC   C3B 2324   1.434   5.582   3.427  0.0656  0.0222 -0.0091
  209POPC   C4B 2325   1.624   5.189   3.586 -0.0392 -0.2299 -0.0527
  210POPC   NC3 2326   4.217   6.354   1.646  0.0581  0.2841 -0.1173
  210POPC   PO4 2327   4.496   6.179   1.884 -0.1463  0.1611 -0.1665
  210POPC   GL1 2328   4.508   6.116   2.264  0.0791  0.0839 -0.2643
  210POPC   GL2 2329   4.461   6.411   2.385 -0.0556 -0.1783 -0.0418
  210POPC   C1A 2330   4.416   6.094   2.753  0.0382  0.0881  0.1196
  210POPC   D2A 2331   4.412   6.097   3.167 -0.0540  0.2994 -0.1486
  210POPC   C3A 2332   4.031   5.947   3.441  0.1238  0.2830 -0.1247
  210POPC   C4A 2333   3.975   5.523   3.751  0.0147 -0.2230  0.0662
  210POPC   C1B 2334   4.324   6.578   2.805  0.0279 -0.2213 -0.2393
  210POPC   C2B 2335   4.383   6.731   3.256 -0.2700  0.0998  0.1107
  210POPC   C3B 2336   4.173   6.643   3.666 -0.1339 -0.3046 -0.0446
  210POPC   C4B 2337   3.776   6.547   3.882 -0.0628 -0.0796  0.0145
  211POPC   NC3 2338   4.148   1.208   1.967 -0.1432 -0.3122  0.0967
  211POPC   PO4 2339   3.869   1.357   1.716 -0.1179  0.2897 -0.1998
  211POPC   GL1 2340   3.722   1.506   2.093 -0.3017 -0.2500 -0.4204
  211POPC   GL2 2341   3.683   1.264   2.268 -0.2711 -0.3052 -0.2119
  211POPC   C1A 2342   3.812   1.608   2.552 -0.4773 -0.1140  0.1852
  211POPC   D2A 2343   3.752   1.902   2.891 -0.1510  0.1070  0.0407
  211POPC   C3A 2344   3.316   2.033   2.982 -0.2305 -0.0078 -0.0599
  211POPC   C4A 2345   3.100   2.406   2.881 -0.1982  0.0385  0.1828
  211POPC   C1B 2346   3.996   1.080   2.501 -0.0428  0.1511  0.1600
  211POPC   C2B 2347   4.151   0.862   2.836 -0.0297  0.0439  0.0074
  211POPC   C3B 2348   4.213   0.837   3.328 -0.3102  0.2747 -0.1237
  211POPC   C4B 2349   4.629   0.754   3.555  0.0417 -0.0990  0.0428
  212POPC   NC3 2350   5.032   5.340   2.343  0.1244 -0.3771  0.0211
  212POPC   PO4 2351   4.848   5.392   2.006 -0.2316  0.1057  0.0635
  212POPC   GL1 2352   4.602   5.546   2.254  0.1112 -0.2965  0.1820
  212POPC   GL2 2353   4.384   5.593   2.115  0.2307  0.4681  0.2132
  212POPC   C1A 2354   4.776   5.782   2.579 -0.2292 -0.0757  0.1570
  212POPC   D2A 2355   4.995   5.959   2.965 -0.1416  0.1264  0.0296
  212POPC   C3A 2356   4.795   5.986   3.386 -0.3225  0.0071 -0.2262
  212POPC   C4A 2357   4.782   5.874   3.822 -0.1597 -0.1457  0.3639
  212POPC   C1B 2358   4.273   5.637   2.548 -0.2494 -0.3715  0.1907
  212POPC   C2B 2359   4.014   5.749   2.865  0.1143 -0.0218 -0.1788
  212POPC   C3B 2360   3.728   5.437   3.122 -0.2630 -0.2181 -0.0088
  212POPC   C4B 2361   3.537   5.392   3.551 -0.2109  0.2878  0.1523
  213POPC   NC3 2362   3.816   2.653   1.570  0.0160 -0.0489  0.2196
  213POPC   PO4 2363   3.464   2.677   1.387 -0.0624 -0.2093  0.2812
  213POPC   GL1 2364   3.410   2.818   1.764  0.0275  0.2582 -0.1231
  213POPC   GL2 2365   3.099   2.714   1.823 -0.0309  0.1837 -0.3111
  213POPC   C1A 2366   3.700   2.897   2.164  0.0617  0.1761 -0.0499
  213POPC   D2A 2367   4.071   3.064   2.353  0.1585  0.2477  0.1188
  213POPC   C3A 2368   3.845   3.239   2.666  0.0913 -0.3434 -0.0242
  213POPC   C4A 2369   3.812   3.471   3.043 -0.1480 -0.0037  0.3062
  213POPC   C1B 2370   3.192   3.161   1.989 -0.2157  0.0341 -0.1803
  213POPC   C2B 2371   3.491   3.326   2.347 -0.0095  0.0990  0.1122
  213POPC   C3B 2372   3.249   3.462   2.716 -0.3210 -0.1767  0.2425
  213POPC   C4B 2373   3.295   3.608   3.142  0.0155  0.0887 -0.0029
  214POPC   NC3 2374   2.268   2.673   1.686 -0.0651 -0.1453 -0.2294
  214POPC   PO4 2375   2.202   3.049   1.527  0.2728  0.0865  0.0088
  214POPC   GL1 2376   2.404   3.270   1.723 -0.2786 -0.0554 -0.1786
  214POPC   GL2 2377   2.469   3.525   1.535 -0.0281  0.0160 -0.2431
  214POPC   C1A 2378   2.472   3.176   2.225 -0.0418 -0.0378  0.2856
  214POPC   D2A 2379   2.594   3.314   2.684 -0.2522 -0.0643  0.0571
  214POPC   C3A 2380   2.854   3.503   3.015 -0.2441  0.2252  0.1506
  214POPC   C4A 2381   2.810   3.618   3.446 -0.0181  0.3152 -0.1562
  214POPC   C1B 2382   2.356   3.641   1.951 -0.1660 -0.1531 -0.1027
  214POPC   C2B 2383   2.233   3.543   2.412  0.2944 -0.0196 -0.0725
  214POPC   C3B 2384   2.220   3.573   2.851 -0.0554 -0.1541  0.0498
  214POPC   C4B 2385   2.265   3.775   3.243 -0.0284 -0.1643 -0.2584
  215POPC   NC3 2386   3.160   2.277   1.488 -0.0466  0.1626  0.2328
  215POPC   PO4 2387   3.482   2.320   1.774  0.0088  0.1498 -0.1848
  215POPC   GL1 2388   3.523   2.494   2.144  0.1428 -0.1872  0.2668
  215POPC   GL2 2389   3.250   2.534   2.270  0.4489 -0.1971  0.3088
  215POPC   C1A 2390   3.573   2.330   2.623  0.0022  0.2285  0.1733
  215POPC   D2A 2391   3.642   2.416   3.102 -0.0331  0.0228 -0.3405
  215POPC   C3A 2392   3.364   2.657   3.284  0.2748  0.1170 -0.1910
  215POPC   C4A 2393   3.034   2.667   3.497  0.2640  0.1336  0.0532
  215POPC   C1B 2394   3.421   2.851   2.540  0.0767 -0.0240 -0.0448
  215POPC   C2B 2395   3.425   3.086   2.926 -0.0220  0.0649  0.2688
  215POPC   C3B 2396   3.245   3.193   3.356 -0.0318  0.0533 -0.1722
  215POPC   C4B 2397   3.260   3.576   3.647  0.0281 -0.0473 -0.0425
  216POPC   NC3 2398   4.345   3.043   1.168 -0.4698 -0.2249 -0.0294
  216POPC   PO4 2399   4.219   3.038   1.526 -0.2254 -0.0878  0.1650
  216POPC   GL1 2400   4.148   3.068   1.921 -0.1088 -0.2760 -0.0832
  216POPC   GL2 2401   4.183   2.781   1.958  0.2898  0.1279 -0.1697
  216POPC   C1A 2402   3.890   3.423   2.087 -0.2555  0.1213 -0.1570
  216POPC   D2A 2403   3.804   3.884   2.078  0.0377 -0.2406 -0.0195
  216POPC   C3A 2404   4.053   4.172   2.360  0.0557 -0.2810  0.1067
  216POPC   C4A 2405   4.158   4.660   2.348  0.0680  0.3302  0.0600
  216POPC   C1B 2406   4.013   2.569   2.333 -0.1705  0.0040 -0.5453
  216POPC   C2B 2407   3.945   2.669   2.809 -0.1905 -0.1675 -0.3026
  216POPC   C3B 2408   3.801   2.920   3.170 -0.1268 -0.0505  0.1460
  216POPC   C4B 2409   3.742   3.254   3.505 -0.0262  0.0155  0.1038
  217POPC   NC3 2410   1.942   5.291   1.200  0.2055  0.0911 -0.0243
  217POPC   PO4 2411   2.156   5.460   1.460 -0.1093  0.1971  0.0958
  217POPC   GL1 2412   2.037   5.378   1.783 -0.1320 -0.4243 -0.0770
  217POPC   GL2 2413   2.074   5.175   1.958 -0.2390  0.0606  0.0449
  217POPC   C1A 2414   1.644   5.342   2.081 -0.1329  0.1094 -0.2624
  217POPC   D2A 2415   1.255   5.557   2.269 -0.2017 -0.0795 -0.3275
  217POPC   C3A 2416   1.176   5.243   2.568  0.1991  0.1246 -0.2890
  217POPC   C4A 2417   0.923   5.077   2.934  0.1549  0.2325  0.1117
  217POPC   C1B 2418   1.966   5.051   2.394  0.1773 -0.2146  0.1178
  217POPC   C2B 2419   1.596   5.009   2.666 -0.0845 -0.1514 -0.1436
  217POPC   C3B 2420   1.504   5.146   3.096 -0.1959  0.0517  0.1645
  217POPC   C4B 2421   1.158   5.101   3.374  0.1691 -0.0681  0.1947
  218POPC   NC3 2422   4.590   8.469   2.126 -0.0548 -0.0276 -0.0510
  218POPC   PO4 2423   4.329   8.368   1.832  0.1234 -0.0420  0.1429
  218POPC   GL1 2424   4.028   8.193   2.236 -0.5073 -0.0121 -0.2531
  218POPC   GL2 2425   4.147   8.480   2.314 -0.0609  0.2734  0.0733
  218POPC   C1A 2426   3.923   8.285   2.699 -0.0853 -0.0447 -0.0585
  218POPC   D2A 2427   3.850   8.217   3.179 -0.0396  0.2371 -0.0442
  218POPC   C3A 2428   3.494   8.421   3.461  0.0064  0.1003  0.3473
  218POPC   C4A 2429   3.044   8.438   3.553  0.1144 -0.0124 -0.0418
  218POPC   C1B 2430   4.407   8.235   2.639 -0.0834  0.0469  0.1860
  218POPC   C2B 2431   4.503   7.885   2.829 -0.1303  0.2795  0.1534
  218POPC   C3B 2432   4.512   7.468   3.051 -0.1903 -0.0666 -0.1096
  218POPC   C4B 2433   4.692   7.112   3.321 -0.4473  0.0031  0.3672
  219POPC   NC3 2434   7.960   5.737   2.109  0.0116  0.2498  0.0277
  219POPC   PO4 2435   8.315   5.819   1.918  0.1434 -0.1488  0.3787
  219POPC   GL1 2436   8.540   5.582   2.229 -0.0223  0.2001  0.4170
  219POPC   GL2 2437   8.313   5.386   2.251 -0.1172 -0.0397  0.1994
  219POPC   C1A 2438   8.732   5.160   2.322  0.1964  0.3006 -0.1409
  219POPC   D2A 2439   9.120   4.838   2.273  0.1662 -0.0809 -0.1047
  219POPC   C3A 2440   9.162   4.727   2.727  0.0410  0.2098  0.0263
  219POPC   C4A 2441   9.248   4.902   3.117 -0.1895  0.1277  0.1136
  219POPC   C1B 2442   8.238   5.306   2.682 -0.0935  0.1741 -0.0383
  219POPC   C2B 2443   8.102   5.441   3.113  0.0866 -0.1583 -0.1405
  219POPC   C3B 2444   7.737   5.467   3.399  0.1221  0.2178 -0.1522
  219POPC   C4B 2445   7.412   5.791   3.532 -0.1805  0.3256 -0.0947
  220POPC   NC3 2446   6.671   6.697   1.795  0.1421  0.1922  0.2536
  220POPC   PO4 2447   6.432   6.994   1.689  0.0930 -0.0370 -0.1419
  220POPC   GL1 2448   6.456   6.989   2.114 -0.2313 -0.3841 -0.0408
  220POPC   GL2 2449   6.148   7.193   2.193  0.3184  0.1056 -0.0720
  220POPC   C1A 2450   6.759   7.023   2.488  0.2803  0.2610 -0.0297
  220POPC   D2A 2451   6.773   7.234   2.881  0.4600 -0.1395  0.1041
  220POPC   C3A 2452   6.962   7.565   3.202 -0.0304  0.1261 -0.0203
  220POPC   C4A 2453   6.837   7.952   3.384  0.1827 -0.1613  0.0053
  220POPC   C1B 2454   6.219   7.243   2.571 -0.0154 -0.1309  0.0693
  220POPC   C2B 2455   6.024   7.288   2.980  0.0472  0.1172 -0.2211
  220POPC   C3B 2456   6.048   7.412   3.439  0.1704 -0.0600 -0.1238
  220POPC   C4B 2457   6.106   7.623   3.883 -0.0571  0.3719 -0.3067
  221POPC   NC3 2458   0.183   8.887   2.393  0.1540  0.5466  0.5579
  221POPC   PO4 2459   0.341   8.628   2.120  0.0861 -0.1138  0.0759
  221POPC   GL1 2460   0.590   8.556   2.313  0.0344  0.1763  0.1575
  221POPC   GL2 2461   0.819   8.674   2.386 -0.0382 -0.0642  0.0050
  221POPC   C1A 2462   0.654   8.127   2.518  0.1453 -0.2754 -0.2149
  221POPC   D2A 2463   0.525   7.694   2.720  0.0539 -0.0345  0.0175
  221POPC   C3A 2464   0.421   7.664   3.152 -0.1470 -0.1831 -0.3576
  221POPC   C4A 2465   0.613   7.584   3.603  0.4412 -0.0968 -0.0260
  221POPC   C1B 2466   0.680   8.535   2.813  0.0467 -0.0255  0.0860
  221POPC   C2B 2467   0.731   8.131   3.054  0.0786  0.1275 -0.3131
  221POPC   C3B 2468   0.859   8.114   3.513 -0.2330  0.0862 -0.0002
  221POPC   C4B 2469   0.920   8.372   3.883  0.0962 -0.0006  0.0054
  222POPC   NC3 2470   5.010   2.462   2.337  0.2031 -0.2384 -0.2673
  222POPC   PO4 2471   4.630   2.588   2.250  0.0081 -0.0618 -0.0222
  222POPC   GL1 2472   4.474   2.535   2.589 -0.1415 -0.2280  0.2873
  222POPC   GL2 2473   4.420   2.855   2.657  0.1244  0.2044  0.0037
  222POPC   C1A 2474   4.655   2.315   2.967 -0.0482  0.2375  0.0200
  222POPC   D2A 2475   4.585   2.130   3.369  0.0327 -0.1133 -0.1412
  222POPC   C3A 2476   4.463   2.541   3.625  0.0512 -0.3607  0.1730
  222POPC   C4A 2477   4.081   2.586   3.880  0.0555 -0.0703  0.0489
  222POPC   C1B 2478   4.255   3.191   2.968 -0.0840 -0.1765  0.0078
  222POPC   C2B 2479   4.296   3.480   3.275  0.2776  0.0772 -0.1479
  222POPC   C3B 2480   4.528   3.826   3.422  0.0916  0.0440  0.1091
  222POPC   C4B 2481   4.511   4.216   3.648 -0.0004  0.0128 -0.0575
  223POPC   NC3 2482   7.644   3.585   1.183  0.3205  0.3121  0.3425
  223POPC   PO4 2483   7.440   3.704   1.480 -0.0492  0.1300  0.1688
  223POPC   GL1 2484   7.231   3.475   1.709 -0.2029  0.0945 -0.1748
  223POPC   GL2 2485   7.184   3.206   1.601 -0.0447  0.0602 -0.0747
  223POPC   C1A 2486   7.046   3.323   2.113 -0.0848 -0.1984 -0.1493
  223POPC   D2A 2487   7.003   3.046   2.475  0.5743 -0.1148 -0.0983
  223POPC   C3A 2488   7.068   3.311   2.908  0.2565 -0.0960  0.1067
  223POPC   C4A 2489   7.416   3.258   3.227  0.0788 -0.0135 -0.1631
  223POPC   C1B 2490   7.449   3.141   1.940  0.0483 -0.0311  0.1118
  223POPC   C2B 2491   7.497   2.834   2.327  0.1338 -0.4547 -0.4002
  223POPC   C3B 2492   7.617   2.603   2.695 -0.1072  0.1561 -0.0409
  223POPC   C4B 2493   7.423   2.368   3.041 -0.3318 -0.1318  0.1859
  224POPC   NC3 2494   8.360   1.551   1.185 -0.1232  0.0824  0.1602
  224POPC   PO4 2495   8.303   1.382   1.521 -0.1950 -0.3341  0.0006
  224POPC   GL1 2496   8.459   1.386   1.866 -0.6369 -0.3117 -0.1448
  224POPC   GL2 2497   8.481   1.083   1.843  0.2869 -0.3287 -0.3046
  224POPC   C1A 2498   8.305   1.501   2.275  0.0606 -0.2021 -0.0567
  224POPC   D2A 2499   8.131   1.781   2.664 -0.2315 -0.0577  0.1227
  224POPC   C3A 2500   7.980   1.570   3.051 -0.1407 -0.1354  0.2769
  224POPC   C4A 2501   8.257   1.578   3.412 -0.0186  0.1159 -0.4569
  224POPC   C1B 2502   8.728   1.113   2.225  0.2223 -0.1684  0.3525
  224POPC   C2B 2503   8.880   1.347   2.564 -0.4787 -0.0762 -0.3562
  224POPC   C3B 2504   9.243   1.580   2.809  0.0921 -0.2908 -0.3296
  224POPC   C4B 2505   9.569   1.575   3.123 -0.2026 -0.1864 -0.1508
  225POPC   NC3 2506   1.021   3.306   1.469  0.0214 -0.1179  0.1656
  225POPC   PO4 2507   0.785   3.541   1.278  0.4252 -0.0506  0.2996
  225POPC   GL1 2508   0.724   3.693   1.596  0.0955 -0.1766 -0.3297
  225POPC   GL2 2509   0.587   3.474   1.747  0.0615 -0.1322 -0.1566
  225POPC   C1A 2510   0.795   3.735   2.095 -0.2619  0.1434 -0.1782
  225POPC   D2A 2511   0.749   3.920   2.551  0.1139  0.2542  0.1788
  225POPC   C3A 2512   0.378   4.142   2.745 -0.0030  0.0529  0.0132
  225POPC   C4A 2513   0.020   4.346   2.980 -0.0974  0.0606 -0.1768
  225POPC   C1B 2514   0.331   3.479   2.122 -0.0813  0.2580 -0.0237
  225POPC   C2B 2515   0.281   3.200   2.445  0.5604  0.2578 -0.1134
  225POPC   C3B 2516   0.417   3.078   2.841 -0.4624 -0.0215 -0.0130
  225POPC   C4B 2517   0.417   2.943   3.267 -0.0719 -0.0223 -0.1374
  226POPC   NC3 2518   4.617   6.697   1.834 -0.1340  0.0178 -0.0764
  226POPC   PO4 2519   4.800   7.030   1.887  0.1869  0.1469 -0.0020
  226POPC   GL1 2520   4.440   7.062   2.134  0.2547  0.2630 -0.0154
  226POPC   GL2 2521   4.528   6.921   2.337  0.0298  0.0127  0.0914
  226POPC   C1A 2522   4.132   7.148   2.486  0.1776 -0.1119 -0.0620
  226POPC   D2A 2523   3.717   7.306   2.676 -0.3407 -0.0772  0.1520
  226POPC   C3A 2524   3.616   7.740   2.551 -0.3190  0.4229  0.3315
  226POPC   C4A 2525   3.635   8.146   2.338 -0.2061 -0.1880  0.0446
  226POPC   C1B 2526   4.936   6.839   2.598 -0.2159  0.1127  0.0236
  226POPC   C2B 2527   5.147   6.844   3.015  0.2486  0.1116  0.1899
  226POPC   C3B 2528   5.082   6.813   3.459  0.1098 -0.5926  0.0771
  226POPC   C4B 2529   4.701   6.811   3.688 -0.3880 -0.0015 -0.1384
  227POPE   NH3 2530   8.694   6.719   1.902  0.1104 -0.1441  0.0830
  227POPE   PO4 2531   8.645   6.940   2.125 -0.1397  0.3120 -0.2330
  227POPE   GL1 2532   8.508   6.810   2.454  0.1581 -0.2579  0.0803
  227POPE   GL2 2533   8.570   6.512   2.428  0.2331 -0.1599 -0.1473
  227POPE   C1A 2534   8.403   6.843   2.894 -0.0039  0.2574  0.2754
  227POPE   D2A 2535   8.496   6.833   3.312 -0.1414  0.2527 -0.0925
  227POPE   C3A 2536   8.723   6.448   3.467  0.5078 -0.1405 -0.1607
  227POPE   C4A 2537   8.965   6.096   3.611  0.2413 -0.1445 -0.1940
  227POPE   C1B 2538   8.504   6.363   2.904 -0.3306  0.2230 -0.0422
  227POPE   C2B 2539   8.221   6.421   3.275 -0.1614 -0.1790  0.1997
  227POPE   C3B 2540   8.034   6.473   3.688 -0.2780  0.3653 -0.1854
  227POPE   C4B 2541   7.975   6.292   4.096  0.1540  0.0470 -0.3833
  228POPE   NH3 2542   5.490   8.212   1.588 -0.1023 -0.0804 -0.0210
  228POPE   PO4 2543   5.275   8.317   1.774  0.2427 -0.0970 -0.2647
  228POPE   GL1 2544   5.154   8.286   2.232 -0.1369  0.0549 -0.0127
  228POPE   GL2 2545   5.055   8.582   2.285  0.0283 -0.1364  0.2650
  228POPE   C1A 2546   5.100   8.227   2.684 -0.0636  0.0952 -0.2963
  228POPE   D2A 2547   5.164   8.213   3.156 -0.2526  0.1446  0.0569
  228POPE   C3A 2548   5.248   8.419   3.545 -0.3854 -0.2472 -0.1863
  228POPE   C4A 2549   5.517   8.797   3.548  0.0927  0.0315  0.1006
  228POPE   C1B 2550   5.462   8.627   2.586 -0.1326  0.1058  0.1591
  228POPE   C2B 2551   5.692   8.462   2.924 -0.1153  0.2411  0.0214
  228POPE   C3B 2552   5.658   8.180   3.301 -0.0530 -0.1320  0.1271
  228POPE   C4B 2553   5.808   7.821   3.613 -0.2303  0.1332  0.0545
  229POPE   NH3 2554   8.204   6.648   2.136 -0.1518  0.3458  0.0065
  229POPE   PO4 2555   8.076   6.904   2.177  0.2631  0.0793  0.1779
  229POPE   GL1 2556   7.847   6.798   2.382 -0.0525  0.2263 -0.0739
  229POPE   GL2 2557   7.950   6.994   2.622  0.0838  0.2314 -0.1983
  229POPE   C1A 2558   7.458   6.644   2.485 -0.2288 -0.0137  0.0712
  229POPE   D2A 2559   7.332   6.536   2.867 -0.2904 -0.0721  0.0212
  229POPE   C3A 2560   7.358   6.596   3.330  0.1641  0.0807 -0.1375
  229POPE   C4A 2561   7.750   6.775   3.457  0.1208  0.2765 -0.2251
  229POPE   C1B 2562   7.648   6.949   3.000 -0.0648  0.3138  0.1256
  229POPE   C2B 2563   7.476   7.207   3.375 -0.0973 -0.2786  0.3677
  229POPE   C3B 2564   7.290   7.524   3.608 -0.0954  0.5194 -0.3019
  229POPE   C4B 2565   6.930   7.654   3.856 -0.1824 -0.0784 -0.0341
  230POPE   NH3 2566   0.777   8.625   1.898  0.1010 -0.1744  0.1743
  230POPE   PO4 2567   0.926   8.973   1.865  0.0599  0.1025  0.0275
  230POPE   GL1 2568   0.937   9.144   2.225 -0.1396 -0.3253 -0.1598
  230POPE   GL2 2569   0.606   9.150   2.228  0.1255 -0.0882 -0.0849
  230POPE   C1A 2570   0.897   9.605   2.341 -0.1153  0.1107 -0.3266
  230POPE   D2A 2571   1.013   9.813   2.800 -0.1080  0.1551 -0.0106
  230POPE   C3A 2572   1.244   9.801   3.211  0.0676  0.1743  0.0240
  230POPE   C4A 2573   1.432   9.669   3.590  0.0001  0.0130  0.1239
  230POPE   C1B 2574   0.646   9.047   2.614 -0.1194  0.3678  0.0347
  230POPE   C2B 2575   0.747   8.988   3.080 -0.0862 -0.2016  0.3530
  230POPE   C3B 2576   1.116   9.063   3.357  0.0169 -0.1921  0.1629
  230POPE   C4B 2577   1.561   9.205   3.464 -0.2282 -0.4951 -0.0173
  231POPE   NH3 2578   1.378   6.393   1.633  0.4479  0.0035  0.0892
  231POPE   PO4 2579   1.372   6.080   1.525 -0.1599  0.1119  0.0972
  231POPE   GL1 2580   1.346   6.005   1.908 -0.0197  0.1136  0.0804
  231POPE   GL2 2581   1.327   6.248   2.105  0.0570  0.2541  0.1050
  231POPE   C1A 2582   1.635   5.826   2.193  0.1199  0.0042 -0.4271
  231POPE   D2A 2583   1.854   5.964   2.552 -0.0508 -0.0134 -0.3422
  231POPE   C3A 2584   1.840   6.134   2.932 -0.2600 -0.0713  0.0924
  231POPE   C4A 2585   1.560   6.082   3.305 -0.2133  0.3931 -0.2551
  231POPE   C1B 2586   1.450   6.226   2.548  0.1092  0.0776 -0.0397
  231POPE   C2B 2587   1.364   6.423   2.974 -0.0541 -0.0652  0.1240
  231POPE   C3B 2588   1.051   6.568   3.270 -0.2569  0.2145  0.1054
  231POPE   C4B 2589   0.813   6.627   3.711  0.2368  0.1704  0.0222
  232POPE   NH3 2590   8.601   7.410   2.083 -0.2274  0.3236 -0.0829
  232POPE   PO4 2591   8.725   7.655   2.291  0.0182  0.2074  0.0608
  232POPE   GL1 2592   8.728   7.663   2.629  0.1832 -0.0220  0.0144
  232POPE   GL2 2593   9.050   7.618   2.750  0.0435  0.0856  0.1703
  232POPE   C1A 2594   8.305   7.770   2.880 -0.0441 -0.4513 -0.3653
  232POPE   D2A 2595   7.890   8.041   2.786 -0.5331 -0.0057 -0.3522
  232POPE   C3A 2596   7.702   8.251   3.127 -0.2899 -0.1200 -0.3428
  232POPE   C4A 2597   7.881   8.397   3.526 -0.0051  0.0848  0.1613
  232POPE   C1B 2598   8.801   7.849   3.037  0.1035 -0.3083  0.0853
  232POPE   C2B 2599   8.517   7.913   3.370  0.2079  0.1285 -0.1459
  232POPE   C3B 2600   8.273   8.000   3.709  0.1259 -0.2100  0.2232
  232POPE   C4B 2601   8.059   7.859   4.110  0.2940 -0.0475  0.3033
  233POPE   NH3 2602   3.686   0.855   1.533  0.0927  0.1041  0.0131
  233POPE   PO4 2603   3.463   0.650   1.671 -0.0259 -0.0451 -0.2143
  233POPE   GL1 2604   3.096   0.598   1.948 -0.2166  0.1979  0.2888
  233POPE   GL2 2605   3.053   0.853   2.092  0.0325  0.3189 -0.0326
  233POPE   C1A 2606   3.049   0.322   2.325 -0.0768  0.0718 -0.2186
  233POPE   D2A 2607   2.687   0.335   2.625  0.4148 -0.0481 -0.0498
  233POPE   C3A 2608   2.582   0.101   2.988 -0.0462  0.3568  0.1176
  233POPE   C4A 2609   2.325  -0.161   3.282 -0.1455 -0.1145  0.1131
  233POPE   C1B 2610   2.930   0.845   2.542  0.1399 -0.0257 -0.1285
  233POPE   C2B 2611   2.814   0.712   2.956  0.0009 -0.1768  0.2166
  233POPE   C3B 2612   2.437   0.563   3.190 -0.0559  0.1998  0.0977
  233POPE   C4B 2613   2.050   0.336   3.415  0.0815  0.0793 -0.3422
  234POPE   NH3 2614   3.116   6.137   2.045  0.2744  0.1721  0.1339
  234POPE   PO4 2615   2.792   6.072   1.931 -0.2859 -0.2502  0.3355
  234POPE   GL1 2616   2.708   6.152   2.284 -0.0062  0.0694 -0.2967
  234POPE   GL2 2617   2.703   6.413   2.308 -0.2010 -0.3011  0.0447
  234POPE   C1A 2618   3.049   6.070   2.655 -0.0638 -0.1709  0.0850
  234POPE   D2A 2619   3.168   6.187   3.143  0.1983  0.4562 -0.0532
  234POPE   C3A 2620   2.892   6.115   3.537  0.3006  0.1033  0.4278
  234POPE   C4A 2621   2.735   5.855   3.900 -0.0920  0.2987  0.0566
  234POPE   C1B 2622   2.499   6.668   2.600 -0.0269  0.1973 -0.1800
  234POPE   C2B 2623   2.483   6.791   3.055  0.0031  0.1876 -0.0821
  234POPE   C3B 2624   2.351   6.675   3.438 -0.1493 -0.1014 -0.2442
  234POPE   C4B 2625   1.995   6.552   3.756  0.1317  0.1545 -0.0847
  235POPE   NH3 2626   7.894   0.861   1.339  0.1256 -0.0695 -0.0268
  235POPE   PO4 2627   8.176   0.790   1.473  0.1029  0.1440 -0.2254
  235POPE   GL1 2628   7.844   0.728   1.809  0.0671  0.2434  0.1851
  235POPE   GL2 2629   8.055   0.727   1.965 -0.1153 -0.2115 -0.2530
  235POPE   C1A 2630   7.561   0.575   2.128 -0.0043  0.0425 -0.3956
  235POPE   D2A 2631   7.528   0.206   2.397  0.0975 -0.3963  0.0957
  235POPE   C3A 2632   7.600   0.451   2.799  0.3289  0.1411  0.0367
  235POPE   C4A 2633   7.609   0.773   3.168 -0.2032  0.0187 -0.0939
  235POPE   C1B 2634   8.081   1.096   2.272  0.1989 -0.0902 -0.0287
  235POPE   C2B 2635   8.139   1.167   2.777  0.0340  0.1975  0.0087
  235POPE   C3B 2636   8.472   1.408   2.951  0.1176 -0.0935 -0.1829
  235POPE   C4B 2637   8.416   1.855   3.016  0.0656  0.0061  0.0843
  236POPE   NH3 2638   4.877   0.001   1.637 -0.0584  0.3591  0.1085
  236POPE   PO4 2639   4.934  -0.231   1.858  0.0733 -0.1301  0.2907
  236POPE   GL1 2640   4.759  -0.035   2.105 -0.0997  0.0894 -0.1073
  236POPE   GL2 2641   4.898   0.075   2.271  0.3066 -0.1375 -0.0090
  236POPE   C1A 2642   4.517  -0.244   2.523  0.0284 -0.0412 -0.0034
  236POPE   D2A 2643   4.304  -0.296   2.940  0.1586  0.1216  0.1522
  236POPE   C3A 2644   4.351  -0.698   3.221 -0.1878 -0.2288  0.1446
  236POPE   C4A 2645   4.478  -1.026   3.542  0.0094 -0.2768 -0.1043
  236POPE   C1B 2646   4.971  -0.207   2.658  0.2047  0.1344  0.0179
  236POPE   C2B 2647   4.771  -0.501   2.991  0.0379 -0.0463  0.1244
  236POPE   C3B 2648   4.765  -0.638   3.463 -0.0105 -0.4249  0.3751
  236POPE   C4B 2649   4.894  -0.544   3.897 -0.1925 -0.4477 -0.1715
  237POPE   NH3 2650   7.326   1.371   1.329 -0.4741 -0.0266  0.0926
  237POPE   PO4 2651   7.292   1.174   1.519 -0.1292  0.1261 -0.0854
  237POPE   GL1 2652   7.264   1.178   1.855  0.4535 -0.4511 -0.4311
  237POPE   GL2 2653   7.333   1.490   1.874  0.0626  0.0838 -0.4757
  237POPE   C1A 2654   7.498   1.115   2.269  0.1019  0.1415 -0.1557
  237POPE   D2A 2655   7.602   1.005   2.739 -0.2181  0.0629  0.0779
  237POPE   C3A 2656   7.546   1.312   3.068  0.0254  0.2702  0.0639
  237POPE   C4A 2657   7.229   1.586   3.295 -0.1032 -0.0212 -0.2301
  237POPE   C1B 2658   7.076   1.827   2.034  0.1474 -0.2072 -0.1381
  237POPE   C2B 2659   6.812   2.074   2.366 -0.0953  0.4944 -0.0092
  237POPE   C3B 2660   6.580   2.379   2.627  0.1732  0.1003 -0.0442
  237POPE   C4B 2661   6.186   2.493   2.842  0.2899  0.1125  0.2035
  238POPE   NH3 2662   0.667   4.738   1.237  0.2581 -0.0418 -0.0863
  238POPE   PO4 2663   0.706   4.804   1.504 -0.0624  0.0139 -0.1133
  238POPE   GL1 2664   0.900   4.971   1.880 -0.3255  0.4718  0.0215
  238POPE   GL2 2665   0.764   4.802   2.044  0.1442  0.0174 -0.2202
  238POPE   C1A 2666   1.334   4.936   2.073 -0.1155  0.1733  0.0360
  238POPE   D2A 2667   1.675   4.726   2.200  0.1463 -0.0058  0.0388
  238POPE   C3A 2668   1.605   4.487   2.647 -0.0749 -0.1691  0.1416
  238POPE   C4A 2669   1.741   4.633   3.082  0.2402 -0.3805 -0.0231
  238POPE   C1B 2670   0.925   4.859   2.452 -0.0550  0.1492 -0.3358
  238POPE   C2B 2671   1.231   4.728   2.807 -0.2024 -0.1359 -0.5050
  238POPE   C3B 2672   1.348   4.335   3.073 -0.0455  0.2133 -0.0075
  238POPE   C4B 2673   1.348   3.983   3.335 -0.0332  0.1408 -0.3627
  239POPE   NH3 2674   8.045   5.183   1.361  0.3230  0.0264 -0.2443
  239POPE   PO4 2675   7.963   4.919   1.514 -0.1775 -0.0988  0.2053
  239POPE   GL1 2676   7.865   4.847   1.923 -0.3712  0.2546 -0.0515
  239POPE   GL2 2677   7.775   4.560   2.087 -0.0512 -0.0584 -0.0774
  239POPE   C1A 2678   8.009   4.933   2.341 -0.0986 -0.2242  0.0264
  239POPE   D2A 2679   8.177   4.864   2.732 -0.1612 -0.0491 -0.4241
  239POPE   C3A 2680   7.932   4.497   2.929 -0.2793 -0.0091  0.0638
  239POPE   C4A 2681   7.612   4.186   2.892  0.0866  0.3653  0.0417
  239POPE   C1B 2682   7.594   4.606   2.518  0.1892  0.0189  0.2325
  239POPE   C2B 2683   7.303   4.687   2.883  0.1226 -0.1618  0.0204
  239POPE   C3B 2684   7.166   4.734   3.318  0.1764 -0.1299 -0.2426
  239POPE   C4B 2685   7.191   5.022   3.658  0.0887  0.1839 -0.2361
  240POPE   NH3 2686   2.254   6.599   1.333  0.0935 -0.2437 -0.0488
  240POPE   PO4 2687   2.548   6.759   1.475 -0.0329  0.0675 -0.1323
  240POPE   GL1 2688   2.593   6.986   1.762  0.2587 -0.0370 -0.0814
  240POPE   GL2 2689   2.907   7.080   1.703  0.2150  0.1012 -0.0401
  240POPE   C1A 2690   2.454   7.277   2.086  0.0369  0.0918 -0.0506
  240POPE   D2A 2691   2.562   7.250   2.556  0.0806  0.1758  0.1712
  240POPE   C3A 2692   2.835   7.079   2.860 -0.1509  0.1764  0.1221
  240POPE   C4A 2693   2.802   7.079   3.312  0.1372 -0.1520  0.3142
  240POPE   C1B 2694   3.009   7.404   2.075  0.0037  0.0821 -0.1339
  240POPE   C2B 2695   3.186   7.417   2.518 -0.0818  0.0699  0.0650
  240POPE   C3B 2696   3.259   7.398   2.984  0.3665 -0.3050 -0.0443
  240POPE   C4B 2697   3.128   7.501   3.413  0.1417  0.1106  0.1699
  241POPE   NH3 2698   3.087   4.225   1.092 -0.0433 -0.1301  0.0736
  241POPE   PO4 2699   3.188   4.513   1.183 -0.1892  0.3165 -0.1374
  241POPE   GL1 2700   3.209   4.486   1.602 -0.0170  0.0675  0.1598
  241POPE   GL2 2701   3.189   4.174   1.591 -0.0158  0.0037 -0.2112
  241POPE   C1A 2702   3.323   4.825   1.897 -0.0560  0.2108  0.0784
  241POPE   D2A 2703   3.447   4.990   2.350 -0.1123 -0.0492 -0.0964
  241POPE   C3A 2704   3.342   4.726   2.727  0.3180  0.5114 -0.3264
  241POPE   C4A 2705   3.262   4.638   3.191 -0.1513  0.0845 -0.3180
  241POPE   C1B 2706   3.091   4.223   2.025  0.1337  0.0433 -0.0204
  241POPE   C2B 2707   3.020   4.530   2.390 -0.2385  0.1155 -0.2322
  241POPE   C3B 2708   2.914   4.519   2.883 -0.3390  0.0631  0.1512
  241POPE   C4B 2709   2.692   4.452   3.290 -0.0656  0.0206  0.0095
  242POPE   NH3 2710   0.616   0.310   1.517 -0.0632 -0.0164  0.0168
  242POPE   PO4 2711   0.777   0.438   1.702 -0.0165  0.0900  0.0326
  242POPE   GL1 2712   0.468   0.576   1.936  0.3142  0.0927  0.0541
  242POPE   GL2 2713   0.556   0.832   2.082 -0.1846  0.2380  0.0620
  242POPE   C1A 2714   0.367   0.577   2.415  0.1420  0.0096 -0.2044
  242POPE   D2A 2715   0.569   0.532   2.857 -0.1037 -0.1416 -0.0491
  242POPE   C3A 2716   0.790   0.588   3.252 -0.0255 -0.0262  0.2851
  242POPE   C4A 2717   0.968   0.738   3.652  0.4175  0.2113  0.0955
  242POPE   C1B 2718   0.740   1.139   2.380 -0.0805 -0.1114 -0.1892
  242POPE   C2B 2719   0.967   1.378   2.759 -0.5208 -0.3459  0.2465
  242POPE   C3B 2720   1.060   1.435   3.194 -0.3135  0.2556 -0.1235
  242POPE   C4B 2721   1.124   1.684   3.607 -0.1369  0.1367  0.3121
  243POPE   NH3 2722   6.268   2.699   1.537 -0.1135 -0.0716 -0.1685
  243POPE   PO4 2723   6.596   2.670   1.604  0.1431  0.1129 -0.1083
  243POPE   GL1 2724   6.523   2.487   1.919 -0.2544 -0.3596 -0.0957
  243POPE   GL2 2725   6.764   2.298   1.866  0.4244 -0.2510 -0.1097
  243POPE   C1A 2726   6.376   2.147   2.229 -0.0817 -0.0128  0.2832
  243POPE   D2A 2727   6.265   1.875   2.587  0.0141  0.3804 -0.3715
  243POPE   C3A 2728   6.446   1.668   2.997 -0.1736  0.2380  0.0744
  243POPE   C4A 2729   6.749   1.450   3.263 -0.1460 -0.1128  0.3159
  243POPE   C1B 2730   6.856   2.590   2.242 -0.0761 -0.0489  0.0413
  243POPE   C2B 2731   7.015   2.567   2.643 -0.1450  0.1337 -0.1098
  243POPE   C3B 2732   6.918   2.264   2.982 -0.0020 -0.1642  0.1570
  243POPE   C4B 2733   6.487   2.129   3.086  0.2289  0.1459  0.0078
  244POPE   NH3 2734   8.849   8.101   1.672  0.0948 -0.4231 -0.1219
  244POPE   PO4 2735   9.058   8.160   1.934 -0.0204 -0.1907  0.0799
  244POPE   GL1 2736   8.972   8.182   2.362 -0.2661 -0.3313  0.2975
  244POPE   GL2 2737   9.176   8.263   2.569 -0.2587 -0.2689 -0.1553
  244POPE   C1A 2738   8.755   8.290   2.776 -0.4729 -0.1590  0.0004
  244POPE   D2A 2739   8.687   8.392   3.198  0.1824 -0.2530 -0.0842
  244POPE   C3A 2740   8.866   8.672   3.465  0.1773  0.0185 -0.1893
  244POPE   C4A 2741   8.745   9.025   3.740  0.1396 -0.2153 -0.0343
  244POPE   C1B 2742   9.240   8.117   2.975 -0.0173 -0.1747 -0.0279
  244POPE   C2B 2743   9.173   8.062   3.403  0.1107 -0.1132 -0.4112
  244POPE   C3B 2744   9.033   8.006   3.852 -0.1080  0.4467  0.0688
  244POPE   C4B 2745   9.133   8.193   4.294  0.0752  0.1460  0.0168
  245POPE   NH3 2746   5.274   7.192   1.735  0.1666 -0.0643  0.1402
  245POPE   PO4 2747   5.103   7.462   1.712  0.3445 -0.0572  0.0905
  245POPE   GL1 2748   4.775   7.503   2.022 -0.1303  0.1488 -0.1581
  245POPE   GL2 2749   4.924   7.322   2.248  0.0386 -0.1789 -0.0874
  245POPE   C1A 2750   4.342   7.545   1.953 -0.0369 -0.1747  0.0672
  245POPE   D2A 2751   3.990   7.715   2.210  0.0701 -0.2424  0.1878
  245POPE   C3A 2752   4.120   7.706   2.628  0.0738  0.4269 -0.1064
  245POPE   C4A 2753   4.019   7.753   3.055  0.2962  0.2121 -0.0031
  245POPE   C1B 2754   5.037   7.323   2.640 -0.0439 -0.5232 -0.2705
  245POPE   C2B 2755   5.092   7.336   3.158  0.1162  0.3660  0.0994
  245POPE   C3B 2756   5.167   7.341   3.571 -0.0232  0.2529 -0.1811
  245POPE   C4B 2757   5.194   7.007   3.938  0.1624  0.0696  0.1312
  246POPE   NH3 2758   6.048   1.414   1.169  0.4743  0.2689  0.0527
  246POPE   PO4 2759   5.937   1.230   1.414 -0.0719  0.2741 -0.3321
  246POPE   GL1 2760   5.834   1.200   1.801 -0.3905  0.3381 -0.2442
  246POPE   GL2 2761   5.846   0.932   1.852  0.3222  0.0664 -0.2608
  246POPE   C1A 2762   5.570   1.422   2.040 -0.0401  0.0833 -0.0369
  246POPE   D2A 2763   5.521   1.693   2.387 -0.1060 -0.0094  0.4143
  246POPE   C3A 2764   5.391   1.756   2.840 -0.1594 -0.2356 -0.4648
  246POPE   C4A 2765   5.433   1.718   3.314  0.1081 -0.0955 -0.2336
  246POPE   C1B 2766   5.961   1.099   2.293  0.1523 -0.2295 -0.3900
  246POPE   C2B 2767   6.142   1.099   2.769 -0.0292  0.0789  0.1228
  246POPE   C3B 2768   6.242   1.278   3.172 -0.1899  0.2855 -0.1316
  246POPE   C4B 2769   6.206   1.394   3.594 -0.3404 -0.5047  0.2267
  247POPE   NH3 2770   0.159   6.190   1.756 -0.4565  0.2774  0.0722
  247POPE   PO4 2771  -0.015   6.420   1.673  0.0160  0.0704  0.6315
  247POPE   GL1 2772  -0.052   6.388   2.122 -0.2308 -0.0318  0.1065
  247POPE   GL2 2773   0.225   6.415   2.262 -0.0080 -0.1146  0.0782
  247POPE   C1A 2774  -0.161   6.118   2.548  0.1163  0.1416  0.1060
  247POPE   D2A 2775  -0.028   6.023   2.975 -0.2886  0.1085  0.2436
  247POPE   C3A 2776   0.136   6.351   3.190 -0.4166 -0.4299  0.0793
  247POPE   C4A 2777   0.443   6.705   3.277  0.0669  0.2070  0.2125
  247POPE   C1B 2778   0.359   6.190   2.612 -0.1611 -0.3455 -0.1928
  247POPE   C2B 2779   0.372   5.777   2.832  0.0089  0.4416  0.1413
  247POPE   C3B 2780   0.495   5.433   3.131  0.0716  0.0758  0.1291
  247POPE   C4B 2781   0.304   5.303   3.531  0.1621  0.0744 -0.3393
  248POPE   NH3 2782   6.579   5.932   1.519  0.1840 -0.0744 -0.1773
  248POPE   PO4 2783   6.688   5.694   1.687  0.2353 -0.0005  0.0015
  248POPE   GL1 2784   6.501   5.707   2.015 -0.0559  0.1705  0.0454
  248POPE   GL2 2785   6.753   5.701   2.186 -0.2468 -0.0161  0.0973
  248POPE   C1A 2786   6.041   5.573   2.096  0.0694  0.4159  0.0659
  248POPE   D2A 2787   5.701   5.424   2.370  0.0255  0.1759  0.1880
  248POPE   C3A 2788   5.593   5.552   2.839  0.2930  0.2386  0.0923
  248POPE   C4A 2789   5.490   5.545   3.286 -0.1328 -0.1760 -0.1192
  248POPE   C1B 2790   6.742   6.062   2.432 -0.0750  0.3012 -0.1809
  248POPE   C2B 2791   6.824   6.065   2.894 -0.1336 -0.0150  0.3950
  248POPE   C3B 2792   6.879   5.750   3.147 -0.2402 -0.0360 -0.2468
  248POPE   C4B 2793   6.725   5.751   3.607  0.0445 -0.1217  0.2386
  249POPE   NH3 2794   8.412   4.601   1.604  0.1924 -0.0624  0.0762
  249POPE   PO4 2795   8.392   4.307   1.592 -0.0163  0.1851  0.0928
  249POPE   GL1 2796   8.166   4.350   1.905 -0.2590  0.2941 -0.1324
  249POPE   GL2 2797   8.051   4.084   1.932  0.0802 -0.0493  0.2834
  249POPE   C1A 2798   8.289   4.498   2.317 -0.1934 -0.1939  0.1190
  249POPE   D2A 2799   8.620   4.694   2.558 -0.0295  0.1321  0.1679
  249POPE   C3A 2800   8.631   4.896   2.907 -0.0473 -0.3438  0.1404
  249POPE   C4A 2801   8.485   5.154   3.264  0.0018 -0.0236 -0.0809
  249POPE   C1B 2802   7.900   3.743   2.262 -0.0030 -0.0233 -0.2944
  249POPE   C2B 2803   7.832   3.314   2.272 -0.1520  0.2181 -0.2808
  249POPE   C3B 2804   7.906   3.107   2.676  0.2708  0.0834 -0.2163
  249POPE   C4B 2805   7.762   2.944   3.138 -0.0681 -0.3702  0.2951
  250POPE   NH3 2806   1.734   3.970   1.680 -0.2203  0.0385 -0.0317
  250POPE   PO4 2807   1.929   3.939   1.388 -0.1440 -0.3499  0.0324
  250POPE   GL1 2808   2.196   4.002   1.682 -0.0342  0.1241 -0.1522
  250POPE   GL2 2809   2.344   4.235   1.661  0.0221  0.0616  0.0642
  250POPE   C1A 2810   2.228   4.048   2.156 -0.2402  0.1831 -0.5752
  250POPE   D2A 2811   2.061   3.992   2.590 -0.1901  0.1453 -0.0291
  250POPE   C3A 2812   1.876   4.153   2.957  0.1219  0.0029  0.1113
  250POPE   C4A 2813   1.989   4.248   3.373 -0.4642  0.0509  0.1559
  250POPE   C1B 2814   2.694   3.934   1.822 -0.3907 -0.0974  0.1392
  250POPE   C2B 2815   2.810   3.549   2.047 -0.2044 -0.2037  0.3837
  250POPE   C3B 2816   2.935   3.250   2.380 -0.0551  0.0896  0.1544
  250POPE   C4B 2817   3.003   2.938   2.754  0.2048  0.0250 -0.1910
  251POPE   NH3 2818   6.296   8.293   1.699  0.1472  0.0997  0.0379
  251POPE   PO4 2819   6.561   8.378   1.771 -0.2058 -0.1621 -0.1347
  251POPE   GL1 2820   6.818   8.500   2.149  0.3802 -0.2198 -0.2272
  251POPE   GL2 2821   7.064   8.321   2.173  0.1315  0.1179  0.1774
  251POPE   C1A 2822   6.598   8.867   2.355 -0.0758  0.0680  0.0301
  251POPE   D2A 2823   6.603   9.169   2.779 -0.2888  0.0025  0.4178
  251POPE   C3A 2824   6.435   9.070   3.187  0.3155 -0.0202  0.1851
  251POPE   C4A 2825   6.480   8.937   3.645  0.1204  0.0762 -0.0907
  251POPE   C1B 2826   6.887   8.394   2.618 -0.0840  0.0376 -0.0045
  251POPE   C2B 2827   6.763   8.707   2.906  0.1874  0.1632 -0.2365
  251POPE   C3B 2828   6.918   8.956   3.168  0.3196  0.0629  0.1403
  251POPE   C4B 2829   7.016   9.368   3.198  0.1425 -0.0795 -0.1666
  252POPE   NH3 2830   1.311   1.794   1.381 -0.2197  0.3896 -0.0464
  252POPE   PO4 2831   1.476   1.783   1.639 -0.3424 -0.0816  0.0648
  252POPE   GL1 2832   1.448   1.624   2.091  0.0894  0.0493 -0.2756
  252POPE   GL2 2833   1.626   1.442   1.958  0.0075  0.2248 -0.0462
  252POPE   C1A 2834   1.465   1.923   2.451 -0.0526  0.1350  0.2072
  252POPE   D2A 2835   1.244   2.025   2.843  0.1775 -0.1008  0.1288
  252POPE   C3A 2836   0.892   2.329   2.767 -0.0625 -0.5807  0.0646
  252POPE   C4A 2837   0.604   2.586   2.989  0.0749  0.0109 -0.0063
  252POPE   C1B 2838   1.677   1.372   2.432 -0.2250  0.0882 -0.1504
  252POPE   C2B 2839   1.462   1.555   2.756  0.0362  0.1307  0.0476
  252POPE   C3B 2840   1.573   1.664   3.146  0.3480  0.0390  0.0277
  252POPE   C4B 2841   1.909   1.825   3.229  0.0908  0.0637 -0.0023
  253POPE   NH3 2842   6.221   3.586   2.067  0.3614 -0.0639  0.0218
  253POPE   PO4 2843   6.264   3.875   2.061  0.0554 -0.0502  0.0140
  253POPE   GL1 2844   6.211   4.155   2.372 -0.0761 -0.0880 -0.0095
  253POPE   GL2 2845   6.398   4.056   2.527 -0.0257 -0.0700  0.0209
  253POPE   C1A 2846   5.916   4.328   2.749  0.0594  0.4020 -0.0116
  253POPE   D2A 2847   5.859   4.343   3.179 -0.4355 -0.1684 -0.1519
  253POPE   C3A 2848   5.778   4.214   3.646  0.2678  0.2346 -0.1980
  253POPE   C4A 2849   5.907   4.065   4.062  0.0656 -0.1063 -0.0713
  253POPE   C1B 2850   6.303   3.821   2.911  0.1073 -0.2437  0.1191
  253POPE   C2B 2851   6.462   3.564   3.223  0.1862  0.1392 -0.0853
  253POPE   C3B 2852   6.897   3.538   3.402 -0.0495  0.0477 -0.0214
  253POPE   C4B 2853   7.209   3.284   3.678 -0.0589  0.0681 -0.1931
  254POPE   NH3 2854   0.963   0.819   1.378 -0.1293  0.2895  0.1099
  254POPE   PO4 2855   1.138   0.538   1.377 -0.2789 -0.1885  0.0033
  254POPE   GL1 2856   1.163   0.579   1.877  0.0404 -0.0345 -0.2665
  254POPE   GL2 2857   1.260   0.777   1.957  0.1582  0.3199  0.0142
  254POPE   C1A 2858   1.306   0.392   2.266 -0.1708  0.3486  0.1408
  254POPE   D2A 2859   1.084   0.271   2.677  0.0106  0.1990  0.0946
  254POPE   C3A 2860   1.450   0.275   2.967 -0.2665 -0.1310  0.2713
  254POPE   C4A 2861   1.679   0.628   3.091  0.2139 -0.2237 -0.3009
  254POPE   C1B 2862   1.228   1.108   2.269  0.2473 -0.3070  0.0275
  254POPE   C2B 2863   1.377   1.095   2.714 -0.0386 -0.2726 -0.1315
  254POPE   C3B 2864   1.655   1.188   3.084  0.0855  0.1252  0.1530
  254POPE   C4B 2865   1.841   1.322   3.449  0.3264 -0.0927 -0.2561
  255POPE   NH3 2866   8.105   8.151   1.969 -0.1275 -0.1724  0.0503
  255POPE   PO4 2867   8.047   8.386   2.195  0.1271  0.0099 -0.0609
  255POPE   GL1 2868   7.665   8.443   2.096 -0.5158  0.0492 -0.2492
  255POPE   GL2 2869   7.550   8.646   2.273  0.0179 -0.3232  0.1039
  255POPE   C1A 2870   7.424   8.266   2.458  0.1539 -0.2334  0.0548
  255POPE   D2A 2871   7.277   8.482   2.871  0.2105  0.0494 -0.2453
  255POPE   C3A 2872   7.030   8.396   3.301  0.0555 -0.2319 -0.1172
  255POPE   C4A 2873   7.024   8.189   3.761  0.1618  0.0916  0.0465
  255POPE   C1B 2874   7.690   8.744   2.707  0.0887  0.0007  0.0508
  255POPE   C2B 2875   7.897   8.737   3.134 -0.1269 -0.0446 -0.1306
  255POPE   C3B 2876   7.871   8.959   3.578 -0.2121 -0.0907 -0.1195
  255POPE   C4B 2877   7.807   9.028   4.035 -0.0952  0.0231 -0.0921
  256POPE   NH3 2878   8.897   4.777   1.391  0.0604 -0.0078 -0.0059
  256POPE   PO4 2879   9.190   4.633   1.315  0.2841 -0.1495 -0.1294
  256POPE   GL1 2880   9.343   4.394   1.620 -0.2042  0.3556  0.1082
  256POPE   GL2 2881   9.623   4.265   1.624 -0.1089 -0.0972  0.0811
  256POPE   C1A 2882   9.139   4.413   2.082  0.1769 -0.0830 -0.0293
  256POPE   D2A 2883   8.962   4.340   2.482  0.0669 -0.1873  0.0157
  256POPE   C3A 2884   8.560   4.167   2.604 -0.0995  0.0736 -0.1188
  256POPE   C4A 2885   8.330   3.979   2.327 -0.1704 -0.5424 -0.0182
  256POPE   C1B 2886   9.676   4.257   2.078 -0.2388 -0.1087 -0.2819
  256POPE   C2B 2887   9.533   4.519   2.452 -0.0100  0.0415  0.1085
  256POPE   C3B 2888   9.701   4.601   2.892  0.3409  0.2054  0.1178
  256POPE   C4B 2889   9.517   4.497   3.269 -0.0863 -0.0269  0.1600
  257POPE   NH3 2890   8.675   0.800   1.518  0.1881 -0.1104 -0.1276
  257POPE   PO4 2891   8.973   0.889   1.411 -0.1348  0.0665 -0.1100
  257POPE   GL1 2892   9.159   0.888   1.803 -0.4749 -0.5193  0.1606
  257POPE   GL2 2893   8.986   0.673   1.966  0.2033  0.0798  0.2080
  257POPE   C1A 2894   9.193   1.089   2.217  0.2331  0.0513 -0.3031
  257POPE   D2A 2895   9.313   1.004   2.654 -0.0258  0.2313  0.4936
  257POPE   C3A 2896   9.028   1.129   3.024 -0.2699  0.1075  0.1829
  257POPE   C4A 2897   8.873   1.480   3.275  0.2714 -0.0409  0.1464
  257POPE   C1B 2898   8.922   0.749   2.445  0.2323 -0.0128  0.2123
  257POPE   C2B 2899   8.609   0.975   2.775 -0.0260 -0.2429 -0.1697
  257POPE   C3B 2900   8.385   1.008   3.200 -0.1391  0.1797 -0.2914
  257POPE   C4B 2901   7.971   1.122   3.328  0.0366 -0.1346  0.0209
  258POPE   NH3 2902   8.384   8.683   1.870  0.0625 -0.0335  0.0638
  258POPE   PO4 2903   8.448   8.969   2.051  0.1195  0.0218  0.4189
  258POPE   GL1 2904   8.655   8.799   2.248  0.0283  0.1414 -0.0094
  258POPE   GL2 2905   8.407   8.701   2.446  0.1057 -0.2503  0.3386
  258POPE   C1A 2906   8.758   8.876   2.696  0.2147 -0.0249  0.0457
  258POPE   D2A 2907   8.837   9.044   3.142  0.0783 -0.0940  0.0529
  258POPE   C3A 2908   9.274   9.091   3.334  0.0126  0.1955 -0.0085
  258POPE   C4A 2909   9.586   9.182   3.650 -0.1375 -0.0804  0.1718
  258POPE   C1B 2910   8.304   8.448   2.813 -0.1536 -0.1019  0.1887
  258POPE   C2B 2911   8.211   8.263   3.196 -0.0705  0.0224  0.1569
  258POPE   C3B 2912   7.977   7.867   3.273 -0.1370  0.2288 -0.1243
  258POPE   C4B 2913   7.843   7.531   3.526  0.1842 -0.0422 -0.2062
  259POPE   NH3 2914   8.221   0.325   1.770 -0.0815 -0.0962 -0.0022
  259POPE   PO4 2915   8.532   0.431   1.863  0.1166  0.1388  0.1585
  259POPE   GL1 2916   8.586   0.434   2.170 -0.2450 -0.0559 -0.1100
  259POPE   GL2 2917   8.443   0.685   2.288  0.0083 -0.1918  0.0495
  259POPE   C1A 2918   8.891   0.277   2.473 -0.0571  0.0144 -0.1655
  259POPE   D2A 2919   9.196   0.195   2.815  0.2108  0.0738 -0.1874
  259POPE   C3A 2920   9.182  -0.260   2.918 -0.0889 -0.0269 -0.0384
  259POPE   C4A 2921   9.407  -0.498   3.240  0.4172 -0.2456  0.2416
  259POPE   C1B 2922   8.415   0.314   2.615  0.2591  0.0443  0.0616
  259POPE   C2B 2923   8.366   0.011   2.973  0.1419  0.0724  0.2686
  259POPE   C3B 2924   8.304   0.055   3.392  0.0536 -0.0860  0.2274
  259POPE   C4B 2925   8.230   0.259   3.829 -0.1466 -0.1255 -0.1143
  260POPE   NH3 2926   1.321   7.518   1.513  0.3519  0.0153  0.2607
  260POPE   PO4 2927   1.620   7.443   1.573  0.3134 -0.1826  0.1974
  260POPE   GL1 2928   1.526   7.371   1.925 -0.2067 -0.0364 -0.0740
  260POPE   GL2 2929   1.307   7.531   2.102 -0.1668 -0.2289  0.3193
  260POPE   C1A 2930   1.725   7.498   2.324 -0.0137 -0.1505 -0.2291
  260POPE   D2A 2931   1.718   7.545   2.758 -0.0764 -0.1497 -0.0552
  260POPE   C3A 2932   2.013   7.602   3.112 -0.2311  0.2903  0.0178
  260POPE   C4A 2933   2.280   7.861   3.299  0.3108 -0.0986  0.2121
  260POPE   C1B 2934   1.450   7.903   2.233 -0.2734  0.0391 -0.3878
  260POPE   C2B 2935   1.631   8.104   2.613  0.3005 -0.0378 -0.3381
  260POPE   C3B 2936   1.786   8.069   3.047  0.0337 -0.0807 -0.1240
  260POPE   C4B 2937   1.830   8.023   3.537 -0.0944 -0.2246 -0.0586
  261POPE   NH3 2938   1.736   8.935   1.542 -0.0416  0.0719 -0.2706
  261POPE   PO4 2939   2.019   8.983   1.345 -0.1851  0.0879  0.0476
  261POPE   GL1 2940   2.205   8.933   1.689  0.0583  0.0523  0.0296
  261POPE   GL2 2941   2.110   8.649   1.850 -0.0545  0.1560 -0.0812
  261POPE   C1A 2942   2.418   8.973   2.084 -0.0122 -0.2363  0.0028
  261POPE   D2A 2943   2.706   8.800   2.414  0.1448 -0.1062 -0.1184
  261POPE   C3A 2944   2.407   8.675   2.772  0.1649  0.0870 -0.0751
  261POPE   C4A 2945   2.111   8.405   3.040  0.1982 -0.3143  0.0993
  261POPE   C1B 2946   2.397   8.445   2.137 -0.0899  0.1417  0.2676
  261POPE   C2B 2947   2.441   8.120   2.496  0.2583  0.0571  0.0071
  261POPE   C3B 2948   2.582   8.078   2.943  0.0545  0.0873  0.0439
  261POPE   C4B 2949   2.591   8.251   3.387 -0.0430 -0.2267 -0.1203
  262POPE   NH3 2950   4.005   0.111   1.701 -0.1288  0.0892 -0.1545
  262POPE   PO4 2951   3.937   0.396   1.618 -0.1820 -0.3199  0.0174
  262POPE   GL1 2952   3.818   0.483   1.968 -0.0469 -0.0955 -0.0202
  262POPE   GL2 2953   3.847   0.811   2.051  0.0562  0.0975  0.0114
  262POPE   C1A 2954   3.927   0.138   2.256  0.3695 -0.2496  0.1848
  262POPE   D2A 2955   3.865  -0.172   2.572  0.0882 -0.1384  0.2565
  262POPE   C3A 2956   3.753  -0.274   3.011 -0.0720  0.4151 -0.1482
  262POPE   C4A 2957   3.953  -0.296   3.403  0.0197  0.2467  0.0339
  262POPE   C1B 2958   3.535   0.845   2.441 -0.0042  0.1775  0.1666
  262POPE   C2B 2959   3.439   1.057   2.801 -0.0090  0.0550 -0.0828
  262POPE   C3B 2960   3.115   1.111   3.146 -0.0059  0.2327  0.2480
  262POPE   C4B 2961   2.957   1.285   3.531  0.0624  0.1686 -0.0586
  263POPE   NH3 2962   4.449   0.332   1.445  0.2674  0.0259  0.0976
  263POPE   PO4 2963   4.451   0.277   1.766  0.3347  0.1892  0.1490
  263POPE   GL1 2964   4.404   0.420   2.101 -0.6127  0.1053  0.1891
  263POPE   GL2 2965   4.327   0.685   2.158 -0.1825 -0.0277 -0.1266
  263POPE   C1A 2966   4.347   0.212   2.525 -0.2234 -0.2244 -0.0672
  263POPE   D2A 2967   4.326   0.354   2.943  0.2676 -0.0021 -0.2268
  263POPE   C3A 2968   4.008   0.308   3.260  0.2904  0.0556 -0.0646
  263POPE   C4A 2969   3.549   0.196   3.226  0.0517 -0.1499 -0.4170
  263POPE   C1B 2970   3.995   0.537   2.485 -0.0683 -0.0166 -0.1075
  263POPE   C2B 2971   3.734   0.582   2.811 -0.3212  0.1612  0.0075
  263POPE   C3B 2972   3.702   0.798   3.219  0.1953  0.0803 -0.2239
  263POPE   C4B 2973   3.753   0.764   3.630 -0.1854 -0.0448  0.0154
  264POPE   NH3 2974   5.295   4.560   2.184 -0.0206  0.1982 -0.0913
  264POPE   PO4 2975   5.010   4.465   2.138 -0.2302  0.0231  0.1278
  264POPE   GL1 2976   5.000   4.612   2.560 -0.0403 -0.3780  0.3339
  264POPE   GL2 2977   4.932   4.896   2.544 -0.1843  0.1015 -0.0459
  264POPE   C1A 2978   5.373   4.631   2.835  0.3501  0.0859 -0.1639
  264POPE   D2A 2979   5.678   4.875   3.090  0.0721 -0.0427  0.1265
  264POPE   C3A 2980   5.869   5.242   3.163  0.2374 -0.0027 -0.1412
  264POPE   C4A 2981   6.301   5.472   3.172 -0.1591 -0.0441  0.1504
  264POPE   C1B 2982   4.792   4.842   2.997  0.1192  0.3941  0.1064
  264POPE   C2B 2983   4.520   4.930   3.310  0.0452  0.0882  0.1504
  264POPE   C3B 2984   4.380   5.274   3.561  0.1429 -0.0792  0.1528
  264POPE   C4B 2985   4.396   5.720   3.693  0.0026  0.0232  0.0727
  265POPE   NH3 2986   4.975   3.889   2.221  0.1369  0.1644  0.0291
  265POPE   PO4 2987   5.249   4.037   2.143  0.1069 -0.1654 -0.1874
  265POPE   GL1 2988   5.274   4.210   2.519  0.2348 -0.1819  0.1311
  265POPE   GL2 2989   5.045   4.178   2.595 -0.0527 -0.2087 -0.5059
  265POPE   C1A 2990   5.448   4.118   2.909 -0.2241  0.3371 -0.0945
  265POPE   D2A 2991   5.403   3.994   3.331 -0.0885  0.3105  0.0929
  265POPE   C3A 2992   4.977   4.026   3.491 -0.3398 -0.0862 -0.0235
  265POPE   C4A 2993   4.894   4.144   3.914  0.1887 -0.1723  0.2079
  265POPE   C1B 2994   4.986   4.369   3.050  0.4219 -0.0913 -0.3090
  265POPE   C2B 2995   4.557   4.435   3.090 -0.2060  0.2158  0.0869
  265POPE   C3B 2996   4.159   4.290   2.864  0.0323  0.0256  0.0995
  265POPE   C4B 2997   3.820   4.494   2.641 -0.0335 -0.0856  0.0993
  266POPE   NH3 2998   0.243   4.113   1.236 -0.1398 -0.0068  0.0701
  266POPE   PO4 2999   0.481   3.917   1.287  0.2243  0.1309  0.5118
  266POPE   GL1 3000   0.160   3.809   1.533 -0.2192 -0.2865  0.1624
  266POPE   GL2 3001   0.226   3.968   1.832 -0.1051 -0.1941  0.0837
  266POPE   C1A 3002  -0.088   3.477   1.754 -0.0584 -0.1314  0.2356
  266POPE   D2A 3003  -0.326   3.189   1.941 -0.1241  0.1586  0.0607
  266POPE   C3A 3004  -0.184   3.279   2.361 -0.5238 -0.0146  0.3006
  266POPE   C4A 3005  -0.070   3.052   2.772 -0.3216  0.2065 -0.2133
  266POPE   C1B 3006   0.277   3.954   2.302 -0.0236  0.2723 -0.3080
  266POPE   C2B 3007   0.228   3.666   2.666 -0.1426 -0.0601  0.1313
  266POPE   C3B 3008  -0.108   3.792   2.976 -0.1739 -0.0875 -0.4380
  266POPE   C4B 3009  -0.384   4.141   3.168  0.0540 -0.1086  0.0305
  267POPE   NH3 3010   6.013   4.065   1.630  0.4483  0.2001 -0.3436
  267POPE   PO4 3011   6.121   4.277   1.800 -0.1333 -0.1735  0.0164
  267POPE   GL1 3012   6.361   4.502   2.083 -0.1280  0.3778 -0.0310
  267POPE   GL2 3013   6.140   4.764   2.157 -0.4056  0.0888  0.2065
  267POPE   C1A 3014   6.420   4.577   2.509  0.5153  0.0586 -0.5462
  267POPE   D2A 3015   6.330   4.458   2.951  0.0487  0.1889  0.0198
  267POPE   C3A 3016   6.284   4.658   3.365  0.0351 -0.0742 -0.1614
  267POPE   C4A 3017   5.926   4.690   3.674  0.1818 -0.0238  0.3365
  267POPE   C1B 3018   6.160   5.175   2.406 -0.0630  0.3800 -0.0155
  267POPE   C2B 3019   6.098   5.531   2.733  0.4456  0.1600 -0.1476
  267POPE   C3B 3020   5.989   5.821   3.115 -0.1370  0.0708 -0.2579
  267POPE   C4B 3021   5.754   5.885   3.477  0.2287 -0.3789 -0.2705
  268POPE   NH3 3022   1.902   0.903   1.313  0.0073 -0.3380  0.3824
  268POPE   PO4 3023   2.155   0.900   1.461 -0.2000 -0.0031  0.1046
  268POPE   GL1 3024   1.945   1.011   1.786 -0.0686  0.3777 -0.0675
  268POPE   GL2 3025   1.817   0.781   1.868 -0.2007 -0.0714 -0.3283
  268POPE   C1A 3026   2.038   1.210   2.184 -0.2488  0.1912  0.0589
  268POPE   D2A 3027   2.209   1.401   2.557  0.3158  0.0010 -0.0533
  268POPE   C3A 3028   1.987   1.755   2.721  0.1793 -0.0183 -0.1864
  268POPE   C4A 3029   1.704   2.102   2.809 -0.1710  0.3440  0.0069
  268POPE   C1B 3030   1.736   0.704   2.324 -0.1425 -0.2093  0.0664
  268POPE   C2B 3031   1.929   0.972   2.664  0.0284  0.1343 -0.0840
  268POPE   C3B 3032   2.101   0.919   3.044  0.2442  0.3082 -0.1089
  268POPE   C4B 3033   1.935   0.782   3.499 -0.0288 -0.4436  0.1578
  269W        W 3034   7.521   1.930   6.753  0.1354  0.2681  0.2514
  270W        W 3035   5.725   1.102   5.665 -0.1248  0.1651  0.0015
  271W        W 3036   6.345   5.363   6.596  0.0363  0.2077 -0.2681
  272W        W 3037   4.067   1.232   7.197 -0.1742  0.0709 -0.1424
  273W        W 3038   4.141   3.546   0.945  0.2726  0.0698  0.2509
  274W        W 3039   1.879   0.007   0.884  0.1746 -0.1816  0.0788
  275W        W 3040   3.518   3.384   6.562 -0.2474 -0.1522  0.0486
  276W        W 3041   3.150   5.723   0.751  0.2329 -0.3757  0.1281
  277W        W 3042   3.495   2.958   6.335 -0.1258  0.1163 -0.1057
  278W        W 3043   5.908   2.351   1.501  0.1088  0.0894  0.0118
  279W        W 3044   5.756   3.523   6.625  0.1554  0.0625  0.1448
  280W        W 3045   5.389   0.627   7.019  0.0760  0.1138 -0.0118
  281W        W 3046   5.841   0.638   1.380 -0.0644 -0.0110  0.1290
  282W        W 3047   1.395   8.769   6.752  0.1504 -0.0639  0.1243
  283W        W 3048   3.896   2.838   6.553  0.0552 -0.2296  0.4883
  284W        W 3049   3.104   3.248   5.587 -0.4445  0.3950 -0.0906
  285W        W 3050   4.236   6.909   7.071  0.0741 -0.0395 -0.1747
  286W        W 3051   5.401   8.763   1.620 -0.0595  0.1638  0.0456
  287W        W 3052   6.238   0.530   6.835 -0.2008  0.2135  0.2560
  288W        W 3053   5.259   4.000   0.341  0.1533  0.3912  0.2063
  289W        W 3054   3.617   6.420   6.920 -0.2760 -0.0715  0.3321
  290W        W 3055   1.686   2.222   5.135 -0.0076 -0.2461 -0.1882
  291W        W 3056   4.045   8.435   5.614 -0.0513  0.2061 -0.1886
  292W        W 3057   8.327   8.436   1.120  0.5168 -0.3276 -0.1368
  293W        W 3058   8.447   7.227   0.429  0.0919  0.2140  0.0073
  294W        W 3059   2.897   6.070   1.097  0.0985 -0.3284 -0.0727
  295W        W 3060   3.332   2.367   5.992  0.1473 -0.0217  0.0419
  296W        W 3061   2.754   1.628   0.231  0.1528 -0.1193  0.1013
  297W        W 3062   7.238   8.174   6.349 -0.0059  0.2364  0.2398
  298W        W 3063   7.653   4.387   6.541  0.0844 -0.1065  0.1939
  299W        W 3064   2.661   5.675   6.206  0.0387 -0.2039 -0.1263
  300W        W 3065   4.906   1.400   0.105  0.1226 -0.2484  0.1296
  301W        W 3066   8.951   7.181   0.554  0.1881 -0.1224  0.3365
  302W        W 3067   7.558   6.764   6.334  0.2182  0.3552  0.2867
  303W        W 3068   1.539   7.968   1.473  0.2847 -0.2224  0.0882
  304W        W 3069   6.238   8.478   5.695  0.0296 -0.1318 -0.1098
  305W        W 3070   3.556   7.470   5.274 -0.0804 -0.1892 -0.0567
  306W        W 3071   7.129   7.755   1.436  0.0545 -0.5094 -0.0515
  307W        W 3072   6.128   8.298   0.721  0.0467 -0.2365 -0.2627
  308W        W 3073   3.139   3.067   6.749 -0.0986  0.2584 -0.0722
  309W        W 3074   2.746   6.349   0.070 -0.1774  0.2546  0.2976
  310W        W 3075   1.391   8.505   5.834 -0.0848 -0.0994  0.0913
  311W        W 3076   5.209   1.679   6.544 -0.0760  0.1399 -0.1609
  312W        W 3077   0.542   3.052   6.291 -0.0058  0.4012 -0.0252
  313W        W 3078   7.306   0.219   6.465 -0.1171  0.0526 -0.1470
  314W        W 3079   3.903   0.981   0.890  0.3078 -0.1796  0.0495
  315W        W 3080   7.148   3.635   6.707  0.0755 -0.0150 -0.0921
  316W        W 3081   8.667   4.149   0.232 -0.2620 -0.0551 -0.0210
  317W        W 3082   3.101   6.733   6.977  0.0023 -0.1499 -0.3451
  318W        W 3083   3.846   0.488   0.699 -0.1910  0.0483 -0.2108
  319W        W 3084   8.312   5.958   0.148 -0.2979  0.3604 -0.0304
  320W        W 3085   8.341   0.203   6.783 -0.3341  0.2140 -0.0701
  321W        W 3086   3.020   2.327   0.127 -0.1124  0.0780  0.0370
  322W        W 3087   5.846   5.949   0.710  0.3584  0.1702  0.1439
  323W        W 3088   7.542   3.826   5.771 -0.0863 -0.1743 -0.1139
  324W        W 3089   1.703   2.146   6.538  0.1495 -0.0691  0.2574
  325W        W 3090   1.723   7.706   0.331  0.1062  0.0116 -0.1416
  326W        W 3091   7.798   7.989   0.695  0.1008  0.2515  0.1304
  327W        W 3092   7.204   6.715   5.899 -0.1428  0.1172 -0.0013
  328W        W 3093   0.613   3.438   6.786 -0.0500 -0.0085  0.0782
  329W        W 3094   3.981   2.799   0.037 -0.0350  0.3137  0.1519
  330W        W 3095   1.023   4.202   5.377  0.3768  0.2415  0.2233
  331W        W 3096   2.421   3.981   0.200  0.2981 -0.0135 -0.3821
  332W        W 3097   1.012   6.338   6.877  0.2072 -0.0212  0.2388
  333W        W 3098   4.591   7.872   1.564  0.0238  0.1551 -0.0487
  334W        W 3099   3.347   1.896   0.436 -0.3132  0.2181 -0.0914
  335W        W 3100   4.002   3.573   0.027  0.1136  0.1301 -0.0262
  336W        W 3101   1.031   3.526   5.988 -0.4284 -0.0845  0.2198
  337W        W 3102   6.277   4.395   1.244 -0.0414  0.0998 -0.3328
  338W        W 3103   0.124   6.929   1.619 -0.0159 -0.0200  0.1884
  339W        W 3104   0.277   8.322   6.747  0.2794 -0.1277  0.2082
  340W        W 3105   5.965   5.210   5.477  0.3281 -0.3041  0.1167
  341W        W 3106   0.770   4.684   0.075  0.1244 -0.0471 -0.1568
  342W        W 3107   5.039   3.726   1.761  0.0321  0.0145 -0.0352
  343W        W 3108   7.818   1.060   6.582 -0.0770  0.0680  0.2283
  344W        W 3109   8.808   4.735   1.896  0.3701  0.1234  0.1308
  345W        W 3110   2.123   0.450   1.142  0.1948 -0.1407  0.0963
  346W        W 3111   5.380   6.952   1.311 -0.0926 -0.3303 -0.2263
  347W        W 3112   6.282   8.267   6.188 -0.0380  0.1300  0.0009
  348W        W 3113   2.488   7.789   6.931  0.0465  0.2663 -0.0431
  349W        W 3114   8.399   5.491   0.438  0.0140  0.1930 -0.1600
  350W        W 3115   6.780   8.135   7.125 -0.0768 -0.3203  0.1890
  351W        W 3116   2.217   3.330   0.296 -0.0431  0.6089  0.1899
  352W        W 3117   8.905   0.380   6.023 -0.0930  0.2323 -0.2726
  353W        W 3118   0.062   4.214   6.726 -0.4682 -0.0199 -0.0694
  354W        W 3119   3.188   6.239   7.034  0.1964  0.0717  0.3500
  355W        W 3120   3.068   0.334   0.874 -0.4493 -0.0150  0.0434
  356W        W 3121   8.567   0.316   0.747  0.1429  0.1269 -0.2709
  357W        W 3122   1.287   7.322   6.712 -0.1659 -0.1164 -0.1842
  358W        W 3123   2.466   5.664   6.767  0.1153 -0.0244 -0.3375
  359W        W 3124   5.755   8.419   1.123  0.0497  0.0224  0.1184
  360W        W 3125   8.079   1.397   0.105 -0.3767  0.1820 -0.2559
  361W        W 3126   0.811   4.563   6.732 -0.2033  0.0233  0.0383
  362W        W 3127   0.051   5.668   0.332  0.1659 -0.2543  0.1288
  363W        W 3128   4.231   8.317   1.351  0.0796 -0.2917 -0.0353
  364W        W 3129   0.456   0.775   1.518 -0.1414 -0.1169  0.3009
  365W        W 3130   1.288   0.953   6.785  0.0588 -0.1540 -0.2503
  366W        W 3131   7.490   6.373   7.192  0.0555  0.2918  0.0988
  367W        W 3132   4.640   2.163   0.958  0.1279 -0.0935 -0.0482
  368W        W 3133   8.293   1.070   1.062 -0.1199  0.1253  0.1615
  369W        W 3134   5.302   0.804   0.299 -0.1307 -0.3673  0.0405
  370W        W 3135   8.614   4.375   6.899  0.0781 -0.0555  0.3933
  371W        W 3136   8.133   3.254   5.847 -0.0886  0.4036 -0.3010
  372W        W 3137   6.991   6.419   7.143 -0.2561  0.0295 -0.0470
  373W        W 3138   1.745   8.913   7.210  0.3068  0.3096  0.1684
  374W        W 3139   1.981   2.717   6.826  0.0397  0.0320  0.1835
  375W        W 3140   8.516   7.917   1.187 -0.0121 -0.1402 -0.1218
  376W        W 3141   4.948   5.170   6.311 -0.2811 -0.0568  0.0952
  377W        W 3142   2.171   5.332   0.401 -0.3024  0.1221  0.2885
  378W        W 3143   0.900   7.152   6.391 -0.1767  0.1328 -0.0312
  379W        W 3144   2.698   6.465   6.879  0.0594  0.0090  0.0486
  380W        W 3145   6.272   4.830   6.521 -0.1240 -0.1245 -0.0872
  381W        W 3146   8.173   8.920   1.438 -0.2500 -0.1464 -0.0787
  382W        W 3147   6.840   3.842   6.311  0.0154  0.0553  0.0701
  383W        W 3148   5.562   7.331   6.833  0.2943  0.0241  0.2676
  384W        W 3149   5.804   8.935   1.274  0.1716  0.0355 -0.1720
  385W        W 3150   4.514   6.010   0.108  0.1968 -0.0420  0.1933
  386W        W 3151   3.874   4.977   6.964  0.0518  0.2031  0.2600
  387W        W 3152   6.164   4.756   5.592  0.1270  0.0696  0.1625
  388W        W 3153   0.394   6.402   7.054  0.0816 -0.0195  0.3318
  389W        W 3154   0.305   3.859   6.939 -0.0433 -0.0710 -0.1261
  390W        W 3155   8.032   2.829   0.044  0.2557 -0.2010 -0.0194
  391W        W 3156   4.240   4.822   0.967 -0.1283 -0.0603 -0.0753
  392W        W 3157   0.244   7.714   6.490  0.2762  0.2766 -0.1702
  393W        W 3158   0.409   5.010   7.203  0.2291  0.1667  0.0470
  394W        W 3159   1.263   8.010   6.216  0.1332  0.0878  0.1683
  395W        W 3160   1.754   1.271   5.654  0.0621 -0.1424  0.1777
  396W        W 3161   5.046   6.730   0.955  0.1185  0.0881  0.2033
  397W        W 3162   0.526   1.626   6.511 -0.1057 -0.1937  0.0652
  398W        W 3163   3.316   6.266   0.784  0.1295  0.0484  0.5467
  399W        W 3164   6.033   3.261   5.392 -0.3385 -0.2429 -0.0716
  400W        W 3165   4.922   6.972   6.209 -0.0150 -0.2117  0.1210
  401W        W 3166   4.437   2.159   7.056  0.0623 -0.1359 -0.0484
  402W        W 3167   1.574   2.603   0.992  0.1214  0.1865 -0.0403
  403W        W 3168   1.848   4.544   0.938  0.1159  0.0289 -0.2299
  404W        W 3169   7.469   1.135   6.240  0.1278  0.2058 -0.0782
  405W        W 3170   5.828   7.314   0.477 -0.0062 -0.0288  0.4257
  406W        W 3171   4.838   0.245   1.061  0.2146 -0.1627 -0.1079
  407W        W 3172   2.844   2.547   6.019 -0.0895  0.1684 -0.0596
  408W        W 3173   1.403   6.418   7.134 -0.2274 -0.3423 -0.1730
  409W        W 3174   5.327   6.491   0.149 -0.1517  0.0181  0.0522
  410W        W 3175   8.509   5.078   1.501  0.2061  0.2856 -0.0902
  411W        W 3176   6.155   7.559   0.096  0.0786 -0.1357 -0.1322
  412W        W 3177   1.071   7.070   0.818 -0.0872  0.1256  0.1195
  413W        W 3178   4.891   1.917   0.051 -0.1595  0.1526  0.1296
  414W        W 3179   0.824   7.749   0.185 -0.0152  0.0615 -0.0110
  415W        W 3180   5.555   3.979   6.541 -0.5896  0.1497  0.0619
  416W        W 3181   7.596   5.549   1.285  0.2102 -0.0594 -0.1338
  417W        W 3182   0.323   4.845   1.781  0.1648 -0.1531  0.2909
  418W        W 3183   4.593   8.217   5.903 -0.3496  0.4048  0.1812
  419W        W 3184   1.010   4.053   6.093 -0.0323 -0.0623 -0.0714
  420W        W 3185   5.209   2.877   0.344 -0.1905  0.0357  0.2876
  421W        W 3186   3.497   0.480   7.278 -0.3800 -0.2803 -0.0093
  422W        W 3187   4.647   7.382   1.486 -0.3941  0.1598  0.2985
  423W        W 3188   1.627   4.535   6.181  0.0574 -0.0341 -0.0849
  424W        W 3189   8.958   5.267   7.201  0.1624 -0.2026  0.2856
  425W        W 3190   1.513   5.330   7.211 -0.1241 -0.0413 -0.0130
  426W        W 3191   4.862   3.315   6.382  0.1847 -0.1026  0.4345
  427W        W 3192   3.365   8.937   1.103 -0.0997  0.1177 -0.0864
  428W        W 3193   3.355   3.264   1.379  0.1113  0.2302  0.2283
  429W        W 3194   1.922   7.228   1.065 -0.0069  0.2996  0.1568
  430W        W 3195   3.661   6.062   7.199  0.1242 -0.0345 -0.0084
  431W        W 3196   4.180   2.475   6.218 -0.1902 -0.2849  0.0878
  432W        W 3197   7.687   2.134   0.825  0.0987 -0.1917  0.0285
  433W        W 3198   3.192   6.337   1.553  0.0739  0.1715 -0.0578
  434W        W 3199   7.332   6.550   6.757  0.3519 -0.2253 -0.0587
  435W        W 3200   0.245   5.540   0.919  0.0150  0.0961  0.3585
  436W        W 3201   7.905   8.561   0.831  0.0573  0.2474  0.1891
  437W        W 3202   6.264   4.634   5.125  0.3784 -0.0131 -0.3129
  438W        W 3203   2.059   5.345   6.686  0.2280 -0.3904  0.2855
  439W        W 3204   4.958   0.454   6.582  0.0245  0.0233 -0.0501
  440W        W 3205   8.913   8.890   6.050  0.2071  0.0913 -0.5143
  441W        W 3206   8.981   5.996   1.071  0.1038  0.1156  0.3423
  442W        W 3207   7.749   0.382   1.364  0.3522 -0.1094  0.2004
  443W        W 3208   0.701   4.432   5.733  0.1229  0.2976 -0.0572
  444W        W 3209   1.836   4.576   6.639 -0.0048 -0.1371  0.0903
  445W        W 3210   8.204   6.267   1.590 -0.0988 -0.4286  0.0996
  446W        W 3211   1.192   5.080   0.497  0.2816  0.3998  0.2239
  447W        W 3212   6.650   4.452   0.246 -0.0627  0.1867 -0.0512
  448W        W 3213   8.910   6.689   1.098 -0.1032  0.1878 -0.0129
  449W        W 3214   7.849   0.715   6.265 -0.0323  0.0352 -0.0792
  450W        W 3215   0.221   1.493   5.437  0.2824  0.0487 -0.2957
  451W        W 3216   6.556   7.161   1.234  0.0121 -0.3733 -0.1807
  452W        W 3217   1.162   6.559   0.749 -0.1422 -0.0800 -0.0288
  453W        W 3218   0.821   4.184   0.511 -0.0957  0.1825  0.2018
  454W        W 3219   5.936   8.033   1.404 -0.2471 -0.0488  0.1024
  455W        W 3220   8.420   3.052   1.021  0.2075 -0.2488  0.0456
  456W        W 3221   4.136   4.203   1.821 -0.0725 -0.2362  0.1763
  457W        W 3222   4.903   0.072   7.055 -0.0573 -0.0183 -0.4308
  458W        W 3223   4.841   5.418   0.756 -0.1112  0.0378 -0.1336
  459W        W 3224   6.841   1.253   6.709  0.3414  0.0056 -0.0176
  460W        W 3225   7.606   3.038   7.126  0.1835  0.0487  0.1836
  461W        W 3226   3.621   7.388   6.858  0.3204 -0.0429 -0.2377
  462W        W 3227   7.033   0.789   6.603 -0.1744 -0.3944  0.0119
  463W        W 3228   7.152   6.354   6.242  0.0081 -0.0132 -0.0876
  464W        W 3229   8.120   2.763   1.426 -0.2581  0.0183  0.0705
  465W        W 3230   7.049   8.262   1.609 -0.0368 -0.1518  0.2234
  466W        W 3231   0.571   7.316   1.083 -0.0743  0.3121 -0.0772
  467W        W 3232   5.595   5.848   6.844 -0.1523  0.0841  0.0386
  468W        W 3233   5.774   0.586   0.131  0.0477 -0.1994 -0.1873
  469W        W 3234   0.092   3.202   6.032  0.0682  0.4160  0.0239
  470W        W 3235   8.856   5.330   1.212  0.2337  0.2844  0.4746
  471W        W 3236   1.095   7.981   1.244  0.1004 -0.1081  0.2686
  472W        W 3237   0.653   8.788   1.400 -0.0100  0.2396 -0.0287
  473W        W 3238   1.288   3.344   6.856 -0.0514  0.2022  0.1485
  474W        W 3239   5.251   4.581   1.294  0.0821  0.0961 -0.3663
  475W        W 3240   6.405   0.052   6.882  0.1779  0.1022 -0.0973
  476W        W 3241   4.803   0.826   0.230  0.0055  0.0300  0.0252
  477W        W 3242   1.863   5.581   6.172 -0.0363  0.1652 -0.0586
  478W        W 3243   3.607   1.098   5.845  0.0746 -0.0207 -0.0717
  479W        W 3244   2.847   6.523   5.553  0.0328  0.0430  0.0373
  480W        W 3245   4.383   1.788   1.178 -0.0385  0.1491  0.0496
  481W        W 3246   2.039   6.295   0.988 -0.3757  0.0461  0.2233
  482W        W 3247   0.650   2.495   7.169 -0.0797 -0.1278 -0.0834
  483W        W 3248   4.973   5.844   6.207  0.0000  0.0784  0.1731
  484W        W 3249   2.549   4.458   0.447 -0.1935  0.1479  0.1441
  485W        W 3250   0.724   3.366   0.674  0.1467 -0.0760  0.1108
  486W        W 3251   7.790   5.334   5.142 -0.1742 -0.0261  0.0612
  487W        W 3252   5.408   2.374   1.488  0.1175 -0.0393 -0.1124
  488W        W 3253   2.707   7.648   0.627 -0.0491 -0.0910  0.0543
  489W        W 3254   3.437   8.873   6.178  0.0106 -0.4528  0.0546
  490W        W 3255   8.525   8.894   1.103  0.2329 -0.0566 -0.1135
  491W        W 3256   5.680   1.530   5.917 -0.1085  0.1933  0.0345
  492W        W 3257   4.483   6.972   1.025 -0.1092 -0.3005  0.2701
  493W        W 3258   6.337   2.055   6.613 -0.3887  0.0101 -0.0264
  494W        W 3259   2.126   1.565   5.855 -0.1522  0.3869  0.4651
  495W        W 3260   2.692   3.328   6.438  0.0447 -0.0110  0.5598
  496W        W 3261   2.744   1.323   7.156 -0.0547  0.0253 -0.0121
  497W        W 3262   7.016   1.458   0.678 -0.2093  0.5274 -0.0829
  498W        W 3263   4.155   2.279   5.697 -0.1522  0.1029  0.0185
  499W        W 3264   8.341   3.522   6.374  0.1900 -0.0733 -0.0430
  500W        W 3265   8.175   4.692   1.138  0.4132  0.2181  0.0857
  501W        W 3266   5.022   8.378   0.310  0.0286 -0.0730 -0.0550
  502W        W 3267   1.763   6.200   1.959 -0.1665 -0.0089 -0.4092
  503W        W 3268   8.703   1.688   1.569 -0.0105  0.1695  0.4536
  504W        W 3269   4.166   7.432   1.531 -0.0825 -0.1729 -0.0171
  505W        W 3270   7.704   5.428   5.689  0.2849  0.0410  0.1761
  506W        W 3271   4.918   1.293   6.324 -0.0274 -0.0777 -0.2975
  507W        W 3272   1.466   6.331   6.668  0.0431  0.2160  0.0074
  508W        W 3273   4.775   2.933   0.684 -0.1296 -0.1499  0.1988
  509W        W 3274   3.096   5.163   7.199  0.2493 -0.3682  0.1774
  510W        W 3275   7.989   5.802   5.377 -0.0048 -0.4767 -0.0009
  511W        W 3276   8.891   1.742   1.071 -0.0312  0.0230 -0.3183
  512W        W 3277   8.299   8.927   0.083  0.0480  0.2194 -0.0198
  513W        W 3278   4.588   4.959   5.997  0.2847  0.0464  0.1019
  514W        W 3279   8.342   5.272   6.163  0.0338  0.1183 -0.3251
  515W        W 3280   0.222   6.193   0.198 -0.3348 -0.2623 -0.1217
  516W        W 3281   1.134   7.612   0.576 -0.1902 -0.4813  0.0565
  517W        W 3282   3.857   7.663   6.220  0.1984  0.2272  0.2228
  518W        W 3283   2.012   5.245   7.187  0.2087  0.0758 -0.1340
  519W        W 3284   5.648   4.373   2.398  0.0104  0.1770 -0.2739
  520W        W 3285   2.215   5.997   7.132 -0.1696  0.1759 -0.0889
  521W        W 3286   6.750   6.875   6.794  0.3953  0.1883  0.3027
  522W        W 3287   5.087   3.019   1.873 -0.3825 -0.2187 -0.2405
  523W        W 3288   6.766   7.702   1.025 -0.2751 -0.1684  0.3644
  524W        W 3289   1.239   4.993   1.525  0.1902  0.0309 -0.4312
  525W        W 3290   7.611   1.112   7.250 -0.3505 -0.0240 -0.0099
  526W        W 3291   6.052   7.450   6.807 -0.3018 -0.0276  0.0766
  527W        W 3292   3.834   8.993   0.620  0.1795  0.4316 -0.0266
  528W        W 3293   4.034   5.803   6.296 -0.1864  0.1557  0.0989
  529W        W 3294   3.221   2.835   7.230 -0.3038 -0.1214 -0.1174
  530W        W 3295   5.343   3.143   6.634  0.3385  0.1828  0.1561
  531W        W 3296   3.990   3.506   1.549  0.0212 -0.1437  0.0361
  532W        W 3297   8.741   1.266   1.241  0.2261 -0.0701 -0.2648
  533W        W 3298   5.942   5.103   1.236  0.3561 -0.5509  0.1423
  534W        W 3299   6.008   0.048   0.056  0.1174 -0.0760 -0.1349
  535W        W 3300   4.736   3.867   5.467 -0.0248  0.0054 -0.0114
  536W        W 3301   2.623   1.122   5.650  0.0468 -0.1716  0.3778
  537W        W 3302   0.428   4.277   7.177 -0.2407 -0.1292  0.3857
  538W        W 3303   7.807   4.065   6.173  0.0844 -0.0143 -0.0977
  539W        W 3304   8.156   7.724   0.377  0.0805 -0.0832 -0.1218
  540W        W 3305   8.340   7.480   1.349 -0.0623  0.1028  0.0124
  541W        W 3306   1.276   7.931   0.008 -0.1014 -0.2007 -0.0826
  542W        W 3307   1.191   7.898   1.765 -0.0983 -0.0263 -0.1806
  543W        W 3308   4.934   4.675   6.961  0.0363  0.0476  0.1401
  544W        W 3309   2.805   6.098   6.485 -0.0366 -0.0372 -0.1252
  545W        W 3310   2.551   5.769   1.662 -0.2560  0.3080 -0.1858
  546W        W 3311   2.694   2.350   6.447  0.1034  0.1456  0.2147
  547W        W 3312   7.423   4.714   6.238  0.2381 -0.0602 -0.0795
  548W        W 3313   6.673   3.053   1.991  0.0347 -0.3691  0.4366
  549W        W 3314   2.569   1.457   0.848  0.1675  0.0015 -0.2267
  550W        W 3315   8.210   2.301   0.662  0.3848  0.0103 -0.0380
  551W        W 3316   7.851   1.678   0.564 -0.1693  0.0005  0.2968
  552W        W 3317   7.004   5.831   5.280  0.1067 -0.1553 -0.0532
  553W        W 3318   8.343   5.773   6.325  0.1206  0.3830  0.1583
  554W        W 3319   2.287   6.562   7.246 -0.0759  0.0596 -0.2210
  555W        W 3320   1.454   8.870   0.339 -0.0678 -0.0518  0.0096
  556W        W 3321   0.464   1.527   6.012 -0.4727  0.0572  0.0708
  557W        W 3322   7.903   6.152   1.089 -0.3797 -0.1604 -0.2556
  558W        W 3323   1.199   0.488   0.397  0.1971 -0.0213  0.0224
  559W        W 3324   6.994   0.025   6.089  0.3291 -0.1875  0.1399
  560W        W 3325   6.015   3.132   6.464  0.1914 -0.0959 -0.1380
  561W        W 3326   5.834   7.727   1.942  0.1844  0.1109  0.1213
  562W        W 3327   7.827   1.166   1.759  0.5225 -0.0287  0.1919
  563W        W 3328   5.387   6.952   7.122 -0.2410  0.0453 -0.2507
  564W        W 3329   6.887   1.597   1.183 -0.3198  0.1888  0.0023
  565W        W 3330   2.055   8.395   6.502  0.3040  0.4200 -0.0449
  566W        W 3331   8.356   8.266   1.557 -0.0204  0.0400 -0.0010
  567W        W 3332   5.026   7.793   0.212  0.4479  0.0546 -0.1009
  568W        W 3333   3.087   3.559   6.791  0.0093  0.0956  0.0994
  569W        W 3334   1.939   0.891   0.203 -0.1597  0.0858  0.1049
  570W        W 3335   6.217   8.640   2.108  0.0906 -0.1131  0.0285
  571W        W 3336   1.057   8.457   0.638  0.0491  0.2786  0.0008
  572W        W 3337   5.698   2.613   7.117 -0.0624 -0.1744 -0.1673
  573W        W 3338   8.886   2.285   6.217 -0.1407 -0.4720 -0.2508
  574W        W 3339   6.326   1.488   6.701 -0.0063  0.1422 -0.0136
  575W        W 3340   3.420   3.375   6.036 -0.3729 -0.5361 -0.1829
  576W        W 3341   5.876   6.490   6.312 -0.1495  0.1434 -0.1498
  577W        W 3342   1.631   3.755   5.540  0.0976  0.1714  0.1663
  578W        W 3343   8.751   1.912   6.829 -0.1142 -0.0967 -0.2114
  579W        W 3344   7.430   2.954   5.134 -0.3745 -0.1676 -0.1043
  580W        W 3345   8.162   2.365   0.092 -0.1136 -0.2986 -0.0107
  581W        W 3346   7.649   5.023   6.685  0.3695  0.2102 -0.2431
  582W        W 3347   1.594   4.362   0.496 -0.2516  0.0771 -0.0958
  583W        W 3348   4.845   6.357   0.348 -0.0400  0.1299  0.0191
  584W        W 3349   7.624   7.487   1.374  0.1634  0.0040 -0.1598
  585W        W 3350   4.229   2.820   5.791  0.4777 -0.0413 -0.0757
  586W        W 3351   5.031   3.120   5.112  0.0558  0.0168  0.3055
  587W        W 3352   8.486   5.854   1.022 -0.0810 -0.2165 -0.0588
  588W        W 3353   5.867   8.543   1.571  0.3793  0.1750 -0.0311
  589W        W 3354   6.766   1.784   6.545  0.2673  0.1732 -0.0338
  590W        W 3355   8.061   5.004   5.804 -0.1346 -0.0572 -0.0312
  591W        W 3356   1.276   1.439   0.700 -0.2714 -0.1371 -0.2091
  592W        W 3357   6.940   6.956   1.480 -0.1613  0.1799  0.0929
  593W        W 3358   0.055   3.655   1.020 -0.2491  0.0725  0.1237
  594W        W 3359   2.169   6.309   0.473  0.1586 -0.3256 -0.0042
  595W        W 3360   8.982   6.225   6.733 -0.0161 -0.2816 -0.2599
  596W        W 3361   6.514   1.269   6.210  0.0612 -0.1178  0.0387
  597W        W 3362   7.871   3.809   7.107 -0.1998  0.2877  0.0184
  598W        W 3363   5.085   4.636   6.365  0.2266  0.0197 -0.0219
  599W        W 3364   1.200   2.384   0.600  0.0467 -0.0283  0.4075
  600W        W 3365   2.308   3.201   1.090 -0.0053  0.0229  0.0351
  601W        W 3366   8.550   6.382   0.365 -0.2064 -0.0485  0.2687
  602W        W 3367   5.203   0.942   6.609  0.0468 -0.0954 -0.0130
  603W        W 3368   0.662   0.620   1.063  0.1537  0.1954 -0.0984
  604W        W 3369   0.829   5.691   1.076  0.2934 -0.0725 -0.0879
  605W        W 3370   5.334   4.913   6.723 -0.1229  0.1301  0.5717
  606W        W 3371   6.972   1.645   5.526  0.0277  0.2236 -0.1430
  607W        W 3372   6.512   7.641   6.896  0.0033  0.1006  0.0391
  608W        W 3373   5.794   2.780   0.685  0.0295  0.0950 -0.2029
  609W        W 3374   2.994   2.563   1.022  0.2700  0.1090  0.0179
  610W        W 3375   7.681   2.608   1.613  0.0676  0.3349  0.1722
  611W        W 3376   6.808   0.080   1.445 -0.0884  0.1727  0.1854
  612W        W 3377   3.292   8.397   6.054  0.0111 -0.1028 -0.0715
  613W        W 3378   3.775   0.005   5.847  0.3482 -0.2645  0.0795
  614W        W 3379   1.048   1.979   0.374 -0.1145 -0.1829 -0.3017
  615W        W 3380   8.201   0.514   1.073  0.0395  0.0033  0.0596
  616W        W 3381   3.838   6.746   0.741  0.3063  0.3443  0.2663
  617W        W 3382   5.665   6.678   1.655 -0.3794  0.1892 -0.1050
  618W        W 3383   0.796   3.792   5.445 -0.1152 -0.0857  0.2047
  619W        W 3384   7.773   1.564   6.978 -0.1525 -0.0698  0.0175
  620W        W 3385   0.422   1.258   6.909 -0.1132  0.0399  0.0319
  621W        W 3386   7.897   2.968   5.430  0.1617 -0.0764 -0.2059
  622W        W 3387   5.635   3.148   1.158 -0.0227 -0.2405  0.1200
  623W        W 3388   8.024   0.639   6.712  0.1644 -0.1149 -0.0765
  624W        W 3389   4.133   8.595   0.404 -0.0673  0.0477  0.0138
  625W        W 3390   0.641   5.200   5.932 -0.0711 -0.4387  0.1554
  626W        W 3391   2.123   2.669   0.900  0.1379  0.0226  0.0372
  627W        W 3392   0.864   3.762   0.863  0.1803 -0.0289 -0.0604
  628W        W 3393   4.140   1.681   6.280 -0.1559  0.1054  0.1014
  629W        W 3394   0.933   1.645   6.102  0.0065 -0.1508  0.0210
  630W        W 3395   2.960   8.894   6.136  0.2481 -0.2804 -0.3809
  631W        W 3396   2.976   5.478   6.741 -0.1525  0.2250  0.1475
  632W        W 3397   1.707   1.703   6.793  0.4876  0.0018 -0.1565
  633W        W 3398   5.398   8.598   6.414 -0.1645 -0.0831  0.0384
  634W        W 3399   4.098   0.130   6.770 -0.2505 -0.1446  0.1431
  635W        W 3400   7.115   7.766   7.227 -0.2909 -0.0241  0.1004
  636W        W 3401   7.290   8.292   0.005  0.1940  0.2301 -0.1171
  637W        W 3402   4.446   6.957   6.546  0.1220 -0.0179 -0.0182
  638W        W 3403   5.961   6.974   6.905  0.1975 -0.0108  0.1134
  639W        W 3404   1.118   1.348   1.256  0.1157 -0.0475  0.2850
  640W        W 3405   5.831   3.609   1.778 -0.0304 -0.0056 -0.0520
  641W        W 3406   2.319   2.840   0.386  0.0370  0.0448 -0.0710
  642W        W 3407   8.709   8.979   1.601 -0.1843  0.0519 -0.0879
  643W        W 3408   0.081   7.184   1.079 -0.2350  0.2813 -0.1110
  644W        W 3409   2.546   7.238   6.775  0.0625 -0.0344 -0.2600
  645W        W 3410   6.496   3.244   7.186  0.0286 -0.1509 -0.0177
  646W        W 3411   1.150   1.971   6.766  0.1208 -0.1793 -0.1235
  647W        W 3412   2.538   2.745   6.732  0.2493 -0.1509  0.1274
  648W        W 3413   3.825   3.669   6.239  0.1238 -0.3267 -0.2751
  649W        W 3414   1.124   5.478   6.933 -0.2187 -0.2369  0.3586
  650W        W 3415   4.786   2.816   1.200 -0.1525 -0.4469  0.1132
  651W        W 3416   4.361   6.233   0.885 -0.0098 -0.0629  0.3210
  652W        W 3417   4.066   2.498   0.539 -0.0211  0.2035 -0.2526
  653W        W 3418   0.371   2.963   7.054  0.3114  0.1290  0.0907
  654W        W 3419   3.049   7.277   7.003 -0.1028  0.1585 -0.2126
  655W        W 3420   1.850   1.540   0.037  0.0376  0.0935  0.1991
  656W        W 3421   4.864   4.493   5.941 -0.1516  0.0919 -0.2316
  657W        W 3422   6.029   3.861   6.265  0.0109 -0.1245 -0.1024
  658W        W 3423   6.385   3.766   1.489  0.2234  0.0532 -0.0615
  659W        W 3424   6.333   7.460   0.811  0.2485  0.1660  0.2635
  660W        W 3425   7.022   6.695   5.418  0.1481  0.0712 -0.1787
  661W        W 3426   0.331   5.646   6.110 -0.0076 -0.1613 -0.2317
  662W        W 3427   1.250   4.836   7.238 -0.0067 -0.3737 -0.0512
  663W        W 3428   6.037   7.131   5.409  0.1878 -0.2491  0.0618
  664W        W 3429   5.596   8.494   5.947  0.0806  0.0013 -0.0743
  665W        W 3430   2.213   3.456   6.903 -0.3692  0.0831 -0.1770
  666W        W 3431   7.930   1.558   1.985  0.2650 -0.1017 -0.3736
  667W        W 3432   1.796   8.676   5.660  0.5892 -0.2703 -0.0685
  668W        W 3433   6.047   4.295   5.839 -0.1582  0.0177  0.0040
  669W        W 3434   4.985   6.652   2.183  0.0179 -0.1416  0.1844
  670W        W 3435   7.930   3.356   6.771 -0.2597 -0.2667 -0.0536
  671W        W 3436   6.938   3.849   5.150  0.0645 -0.0210 -0.0610
  672W        W 3437   2.106   7.053   6.427 -0.1790 -0.0963  0.1406
  673W        W 3438   5.277   1.897   5.551 -0.1940  0.0427 -0.1380
  674W        W 3439   7.740   1.563   1.474  0.2996  0.1601  0.1085
  675W        W 3440   6.751   3.906   7.276 -0.1007  0.0621  0.0486
  676W        W 3441   2.649   6.911   7.141  0.1301 -0.2556  0.0446
  677W        W 3442   0.035   5.803   5.546  0.3421  0.1679  0.1900
  678W        W 3443   4.759   5.581   6.518 -0.0300  0.0890 -0.2480
  679W        W 3444   4.609   0.083   6.636 -0.1188  0.0474 -0.2824
  680W        W 3445   6.264   6.775   6.565  0.2618 -0.1199  0.1144
  681W        W 3446   3.709   3.639   5.738 -0.0269  0.1046  0.2384
  682W        W 3447   2.951   1.277   5.223 -0.1529 -0.0567 -0.0498
  683W        W 3448   8.366   5.312   0.944  0.1826  0.0690  0.0853
  684W        W 3449   4.944   1.346   6.820  0.2751 -0.3082  0.1544
  685W        W 3450   7.354   4.356   0.478 -0.1384  0.2886 -0.0133
  686W        W 3451   7.228   2.999   6.018  0.2087  0.0154  0.1560
  687W        W 3452   3.394   6.008   1.234  0.0522  0.5261 -0.1291
  688W        W 3453   2.148   1.902   6.574  0.0232  0.2000 -0.0415
  689W        W 3454   5.212   3.817   5.696 -0.0493  0.0269  0.0832
  690W        W 3455   4.984   7.244   0.822  0.0157 -0.1625  0.4384
  691W        W 3456   2.114   7.884   5.887 -0.2488  0.0776  0.1544
  692W        W 3457   1.005   4.027   6.563  0.0766 -0.2512 -0.0280
  693W        W 3458   1.078   4.567   1.691 -0.1814  0.0949  0.0022
  694W        W 3459   8.735   1.575   5.413 -0.0342 -0.0591 -0.2190
  695W        W 3460   4.779   1.721   1.757 -0.0513  0.0302 -0.1239
  696W        W 3461   1.835   8.807   6.237 -0.3239 -0.3613 -0.1687
  697W        W 3462   1.931   5.695   0.244  0.0389  0.0316 -0.1212
  698W        W 3463   5.644   4.215   0.120  0.1481  0.0635 -0.0073
  699W        W 3464   4.920   5.378   0.268 -0.1021 -0.0417  0.0121
  700W        W 3465   3.833   8.828   6.460  0.0995 -0.0495 -0.0933
  701W        W 3466   6.636   2.499   6.534  0.3604 -0.3881 -0.3309
  702W        W 3467   1.528   7.691   1.040  0.0549 -0.1520 -0.2164
  703W        W 3468   6.394   7.938   5.794  0.0661  0.0418 -0.1584
  704W        W 3469   0.941   5.358   6.509  0.1528 -0.0480  0.0692
  705W        W 3470   2.791   0.754   1.518 -0.1463  0.0184  0.0524
  706W        W 3471   7.045   0.540   6.146  0.1542  0.1623  0.1541
  707W        W 3472   5.518   0.271   0.968  0.2920  0.0198  0.1738
  708W        W 3473   2.633   4.178   7.129 -0.0004 -0.1367  0.0291
  709W        W 3474   5.772   6.751   1.146  0.0882 -0.1725 -0.1406
  710W        W 3475   4.530   6.057   6.491  0.1133  0.3192  0.2707
  711W        W 3476   0.599   6.795   1.364  0.0319 -0.1231  0.2713
  712W        W 3477   3.838   7.814   6.976  0.0472  0.3652  0.2253
  713W        W 3478   3.854   6.163   1.391  0.1717  0.2336  0.2650
  714W        W 3479   0.176   5.920   2.281  0.2413 -0.0635 -0.1739
  715W        W 3480   5.674   4.749   0.476  0.0006 -0.0169 -0.0558
  716W        W 3481   3.956   5.268   6.519 -0.0524 -0.1372 -0.1016
  717W        W 3482   1.870   0.442   1.548 -0.3541  0.0483 -0.1781
  718W        W 3483   6.213   3.258   0.263 -0.1261  0.0317  0.2273
  719W        W 3484   2.410   3.961   6.729 -0.1334  0.0532 -0.0017
  720W        W 3485   5.305   5.442   5.859  0.1769 -0.2405 -0.0130
  721W        W 3486   1.594   3.383   5.153  0.0562  0.1527 -0.0918
  722W        W 3487   6.719   2.744   7.087  0.3147  0.0386 -0.1407
  723W        W 3488   4.884   4.240   0.098 -0.1408 -0.1755  0.0830
  724W        W 3489   1.894   2.259   5.557 -0.0445 -0.1547  0.0100
  725W        W 3490   5.188   1.679   1.981 -0.1845  0.1517 -0.3030
  726W        W 3491   2.845   7.616   1.064 -0.1317  0.2766  0.0454
  727W        W 3492   7.055   5.641   6.533 -0.2665 -0.0130 -0.0886
  728W        W 3493   4.695   0.868   6.642  0.0631  0.1272  0.1856
  729W        W 3494   4.277   4.191   6.804 -0.0363 -0.3713 -0.1271
  730W        W 3495   7.291   4.827   6.963 -0.1279  0.2164  0.2682
  731W        W 3496   4.740   8.379   1.604 -0.0485 -0.2828 -0.4104
  732W        W 3497   6.922   3.582   1.363 -0.2242 -0.0792  0.1760
  733W        W 3498   1.224   2.639   5.944 -0.0148 -0.0119 -0.0488
  734W        W 3499   3.521   5.565   6.395  0.0127  0.1416 -0.0938
  735W        W 3500   0.390   7.299   0.197  0.0740 -0.0186  0.0276
  736W        W 3501   0.064   7.433   6.882 -0.0511  0.0278  0.3867
  737W        W 3502   8.247   6.653   6.057 -0.2334 -0.1963  0.0271
  738W        W 3503   0.344   7.935   1.590  0.0969 -0.0280 -0.5297
  739W        W 3504   1.270   2.295   6.362 -0.1626 -0.3482 -0.0443
  740W        W 3505   7.741   8.407   6.103 -0.0354 -0.2433  0.1785
  741W        W 3506   5.093   0.511   1.412 -0.1419  0.1148 -0.3483
  742W        W 3507   6.817   2.323   0.120  0.4529  0.0916 -0.0970
  743W        W 3508   0.319   2.027   6.213  0.0666 -0.0008 -0.0924
  744W        W 3509   6.675   0.990   0.007  0.1468 -0.1293  0.0068
  745W        W 3510   2.001   6.819   0.431  0.0717  0.2629 -0.2951
  746W        W 3511   2.892   0.725   5.118  0.1509  0.1254 -0.0026
  747W        W 3512   0.177   0.520   0.811  0.0277 -0.0374  0.3241
  748W        W 3513   2.231   0.216   6.270  0.1898  0.2202 -0.2222
  749W        W 3514   1.860   1.584   6.328  0.0598  0.2042 -0.1389
  750W        W 3515   5.295   5.009   7.275  0.0831 -0.1185  0.1759
  751W        W 3516   8.899   8.659   1.903  0.1548  0.1376  0.0716
  752W        W 3517   0.495   1.065   0.188  0.0040  0.3891  0.0755
  753W        W 3518   5.570   4.280   0.585 -0.2371  0.1206 -0.1807
  754W        W 3519   6.200   5.617   5.810 -0.0227  0.0198 -0.1045
  755W        W 3520   3.657   7.977   0.922 -0.2166  0.0335  0.3627
  756W        W 3521   5.212   8.945   1.185 -0.0597 -0.1049  0.0831
  757W        W 3522   7.627   7.224   7.204  0.0528 -0.0834 -0.1519
  758W        W 3523   3.670   1.557   5.915 -0.0424  0.1026 -0.0038
  759W        W 3524   1.760   7.840   1.887 -0.2715  0.0945 -0.0474
  760W        W 3525   6.882   7.930   6.116  0.1227  0.2229  0.0744
  761W        W 3526   5.474   7.435   2.138 -0.1888 -0.0888  0.0554
  762W        W 3527   7.104   4.163   1.271  0.4785 -0.0403 -0.0580
  763W        W 3528   6.820   5.425   0.845 -0.1181 -0.2185  0.1809
  764W        W 3529   2.317   7.814   5.407  0.0956  0.0868 -0.0151
  765W        W 3530   7.894   6.394   0.238  0.0551  0.2510  0.0945
  766W        W 3531   8.839   6.070   0.583 -0.1707  0.2276  0.0077
  767W        W 3532   6.157   2.078   5.904  0.0007  0.0461 -0.0461
  768W        W 3533   4.623   3.884   0.845  0.3820 -0.0975  0.1053
  769W        W 3534   2.232   5.785   6.378 -0.0014  0.2068  0.0874
  770W        W 3535   2.038   0.347   7.198 -0.1170  0.0931 -0.0304
  771W        W 3536   3.662   4.695   1.494  0.4049 -0.1153 -0.1016
  772W        W 3537   5.422   8.634   0.808  0.1682  0.1065  0.0052
  773W        W 3538   5.086   5.675   1.656  0.3688  0.0243  0.0736
  774W        W 3539   7.905   4.374   1.490 -0.0238 -0.2489 -0.0214
  775W        W 3540   3.879   7.173   6.388  0.3418  0.2316  0.0968
  776W        W 3541   7.215   0.861   7.112 -0.2332  0.1163  0.0624
  777W        W 3542   8.374   7.902   6.705  0.3045 -0.0797  0.1714
  778W        W 3543   8.210   3.359   0.577  0.0561  0.2898  0.1034
  779W        W 3544   8.732   7.541   6.486  0.0897  0.1334 -0.0164
  780W        W 3545   2.788   1.673   1.218 -0.0302 -0.1175 -0.3781
  781W        W 3546   1.675   0.631   6.908  0.0266  0.0549 -0.0470
  782W        W 3547   2.066   7.885   6.692  0.0428 -0.1608  0.2786
  783W        W 3548   4.788   7.703   7.078  0.0583 -0.3275  0.0065
  784W        W 3549   2.369   7.161   0.614  0.0789  0.0402 -0.2461
  785W        W 3550   2.995   7.641   0.128 -0.2242  0.0360 -0.0002
  786W        W 3551   4.174   4.315   0.005 -0.1891  0.4231  0.1222
  787W        W 3552   8.254   4.137   5.697  0.1234  0.1295 -0.1401
  788W        W 3553   0.907   5.575   6.067  0.2134 -0.0429  0.0741
  789W        W 3554   6.678   8.832   5.762 -0.0011  0.0849  0.1524
  790W        W 3555   2.655   2.671   0.074  0.0231  0.1646 -0.0373
  791W        W 3556   1.959   1.904   1.556  0.0290  0.0365 -0.2214
  792W        W 3557   7.945   1.056   5.235  0.0198 -0.0840 -0.0946
  793W        W 3558   2.695   6.274   1.472 -0.1967  0.3120  0.0381
  794W        W 3559   2.561   0.292   5.202 -0.1906 -0.0258 -0.0213
  795W        W 3560   5.942   0.841   5.287 -0.3475  0.0852 -0.0564
  796W        W 3561   3.608   6.738   6.287 -0.3486 -0.0451 -0.0535
  797W        W 3562   3.719   6.259   6.390  0.0991  0.0134 -0.1733
  798W        W 3563   4.198   8.115   0.368  0.2739  0.1323 -0.1338
  799W        W 3564   8.718   0.697   1.048 -0.0631  0.2631  0.3004
  800W        W 3565   8.105   1.883   6.074 -0.1268 -0.2640  0.2799
  801W        W 3566   1.405   5.890   0.937  0.1039  0.1853  0.1229
  802W        W 3567   8.293   4.034   7.126  0.0142 -0.1123 -0.0482
  803W        W 3568   4.251   6.804   6.115  0.0488 -0.2066 -0.0328
  804W        W 3569   2.212   3.965   0.671 -0.2771  0.1416  0.0357
  805W        W 3570   8.058   4.955   0.237 -0.1731 -0.0138  0.0862
  806W        W 3571   4.242   0.785   1.659 -0.1773 -0.5386  0.0284
  807W        W 3572   6.826   8.627   0.010 -0.0240  0.0371  0.0544
  808W        W 3573   1.511   5.004   6.862 -0.1153  0.0908 -0.1069
  809W        W 3574   2.625   8.692   0.296 -0.0706 -0.3673 -0.2092
  810W        W 3575   2.540   1.891   0.574 -0.1290  0.0029 -0.1547
  811W        W 3576   1.394   4.843   5.635  0.0721  0.0852 -0.0132
  812W        W 3577   6.870   6.017   1.095  0.2450 -0.3171  0.2910
  813W        W 3578   8.048   1.252   6.160 -0.1434  0.3365 -0.0931
  814W        W 3579   0.109   8.404   6.143  0.1620  0.1309  0.0921
  815W        W 3580   1.413   8.236   0.972  0.2323  0.3856 -0.0137
  816W        W 3581   8.609   2.128   0.345 -0.0335 -0.0305  0.0815
  817W        W 3582   1.074   2.100   5.888  0.0270  0.0159  0.2119
  818W        W 3583   4.930   5.232   1.514  0.1132 -0.2203 -0.0058
  819W        W 3584   1.829   6.266   1.467  0.2244 -0.0911 -0.0739
  820W        W 3585   4.735   0.773   1.769 -0.2034  0.2270  0.3039
  821W        W 3586   0.919   6.331   0.034 -0.1887  0.1622 -0.1196
  822W        W 3587   8.603   1.507   0.285 -0.0455 -0.1094 -0.3810
  823W        W 3588   2.454   8.771   6.280  0.2468 -0.2623  0.1218
  824W        W 3589   4.115   8.284   0.855  0.0932  0.1220 -0.3201
  825W        W 3590   5.686   5.197   0.245 -0.1908  0.0349  0.1271
  826W        W 3591   4.666   6.113   6.933 -0.1110 -0.1809  0.1741
  827W        W 3592   4.729   4.796   0.883 -0.1917 -0.1718  0.1206
  828W        W 3593   6.532   8.005   0.749  0.2458  0.5859  0.5687
  829W        W 3594   7.912   3.047   0.461  0.1038 -0.0404 -0.0613
  830W        W 3595   1.041   5.831   6.487  0.3035  0.0820  0.1690
  831W        W 3596   4.262   0.530   5.113 -0.0437 -0.2490  0.0458
  832W        W 3597   7.156   8.411   6.820  0.2261  0.0254 -0.1838
  833W        W 3598   5.766   6.578   7.192  0.0301  0.0884 -0.0798
  834W        W 3599   7.508   8.052   1.391  0.1823 -0.1308  0.3366
  835W        W 3600   5.440   7.026   6.252  0.0097  0.0675  0.0430
  836W        W 3601   7.043   2.780   6.473  0.2153 -0.2397 -0.3574
  837W        W 3602   1.017   0.336   0.902 -0.0201  0.4166  0.0940
  838W        W 3603   0.398   0.739   7.095 -0.1230 -0.0051 -0.0580
  839W        W 3604   2.363   6.707   2.107  0.0381  0.0132  0.1357
  840W        W 3605   3.283   1.587   6.608 -0.0463  0.2901 -0.1672
  841W        W 3606   0.557   3.409   5.964 -0.0098  0.0487 -0.1538
  842W        W 3607   6.905   4.073   6.831  0.0403 -0.1154 -0.2572
  843W        W 3608   2.135   0.491   0.460 -0.2004 -0.0913  0.0031
  844W        W 3609   6.002   2.877   5.911  0.0910 -0.2565  0.3169
  845W        W 3610   4.929   2.051   6.157  0.4350  0.0593  0.0223
  846W        W 3611   0.930   4.286   7.178 -0.0116  0.0717 -0.0306
  847W        W 3612   7.198   4.736   0.150  0.3302  0.2402 -0.0492
  848W        W 3613   6.466   4.406   6.698 -0.3043  0.5287 -0.1391
  849W        W 3614   4.779   8.721   1.248  0.1623 -0.2065 -0.1341
  850W        W 3615   5.620   0.195   0.447  0.2039 -0.1234 -0.3294
  851W        W 3616   5.113   3.724   6.484 -0.0782 -0.0497  0.0365
  852W        W 3617   3.515   4.082   1.225 -0.2299 -0.1756 -0.0329
  853W        W 3618   1.754   7.944   7.082 -0.2388  0.3034  0.2644
  854W        W 3619   3.484   4.325   0.773 -0.1615 -0.0190 -0.2834
  855W        W 3620   2.690   4.653   5.881 -0.1678  0.0857 -0.0737
  856W        W 3621   7.825   3.494   6.152  0.1205 -0.1547 -0.0112
  857W        W 3622   6.707   0.540   6.994  0.2477 -0.2647 -0.1990
  858W        W 3623   0.564   0.385   5.456  0.0118 -0.1471  0.0416
  859W        W 3624   8.279   6.333   7.100  0.2874  0.1109  0.0727
  860W        W 3625   0.533   7.798   1.085  0.2455  0.0623 -0.0995
  861W        W 3626   4.172   6.321   6.302 -0.5168 -0.0286  0.0778
  862W        W 3627   6.369   0.984   0.425  0.1061  0.2807 -0.1575
  863W        W 3628   7.517   6.354   5.898 -0.0836  0.0492 -0.0137
  864W        W 3629   2.020   5.065   0.776 -0.1462 -0.0590 -0.1435
  865W        W 3630   0.748   3.676   6.342  0.0242  0.1334 -0.0513
  866W        W 3631   7.177   4.248   7.262 -0.0948  0.1996  0.4335
  867W        W 3632   1.524   1.767   0.449  0.0533 -0.0824 -0.0483
  868W        W 3633   1.824   1.162   6.995 -0.0939  0.0458 -0.0561
  869W        W 3634   3.264   7.584   1.608  0.1723  0.0563  0.1994
  870W        W 3635   6.886   4.203   0.787  0.0956  0.2157  0.1295
  871W        W 3636   7.512   6.724   5.359  0.1754  0.0775 -0.2113
  872W        W 3637   1.733   1.748   1.048 -0.0684  0.2237 -0.0838
  873W        W 3638   5.852   3.656   5.180  0.2386  0.2912  0.6024
  874W        W 3639   8.845   2.185   0.807 -0.2546 -0.0242 -0.2891
  875W        W 3640   6.440   2.511   5.953 -0.1187 -0.0530 -0.1240
  876W        W 3641   0.441   0.158   1.014 -0.1632  0.1415 -0.0092
  877W        W 3642   4.321   8.645   6.708  0.1029  0.0560 -0.3546
  878W        W 3643   2.031   4.142   6.418  0.3275 -0.1620  0.3518
  879W        W 3644   0.283   8.785   6.428  0.0741 -0.0981  0.1897
  880W        W 3645   3.667   8.679   0.284  0.1344 -0.2157 -0.0328
  881W        W 3646   2.637   4.111   0.873 -0.2033 -0.0726  0.1878
  882W        W 3647   1.326   4.478   6.835  0.3367 -0.0560 -0.0667
  883W        W 3648   4.120   5.845   1.693  0.1204 -0.2514 -0.0553
  884W        W 3649   2.199   7.108   1.447  0.2612  0.1325 -0.2087
  885W        W 3650   5.371   1.388   5.597  0.0165  0.0706 -0.0060
  886W        W 3651   1.562   0.686   1.013  0.1759 -0.3939 -0.1167
  887W        W 3652   0.471   2.001   1.592  0.0504  0.1747 -0.0115
  888W        W 3653   3.474   3.906   6.725  0.0221  0.1688 -0.1122
  889W        W 3654   6.784   1.672   6.004 -0.1298  0.1564 -0.1182
  890W        W 3655   3.125   1.330   1.097  0.2294 -0.0107  0.1329
  891W        W 3656   5.874   2.306   0.690  0.3193 -0.2768  0.3583
  892W        W 3657   4.471   5.577   0.339 -0.0483 -0.0161 -0.0785
  893W        W 3658   6.318   2.777   0.629  0.0445 -0.1226  0.2372
  894W        W 3659   8.172   6.545   1.156 -0.2388 -0.1870  0.1764
  895W        W 3660   8.962   6.666   0.400  0.4056 -0.0319  0.0720
  896W        W 3661   3.830   1.991   0.552  0.0547  0.3574 -0.0329
  897W        W 3662   4.382   1.257   6.353  0.2593 -0.0695 -0.1090
  898W        W 3663   3.699   8.561   0.842  0.0866 -0.1145  0.0608
  899W        W 3664   4.616   4.460   1.845 -0.0236  0.0569  0.1121
  900W        W 3665   2.456   5.117   1.087 -0.2801  0.0672  0.0657
  901W        W 3666   2.398   0.825   0.991  0.0384  0.0575  0.1611
  902W        W 3667   4.781   8.848   0.235 -0.0372 -0.0692  0.0563
  903W        W 3668   4.987   8.922   6.351  0.0081  0.1389 -0.1022
  904W        W 3669   0.260   5.309   5.663 -0.0077  0.1777 -0.1286
  905W        W 3670   3.710   5.294   1.066 -0.0060  0.3155 -0.3826
  906W        W 3671   7.937   8.886   5.950 -0.2281  0.0614 -0.1945
  907W        W 3672   2.826   0.861   7.011 -0.2479 -0.1909  0.0706
  908W        W 3673   5.681   3.695   0.119  0.2390 -0.2602 -0.1275
  909W        W 3674   6.913   8.220   0.976 -0.0846  0.1297 -0.0031
  910W        W 3675   3.013   6.399   6.064 -0.0886  0.0810  0.1149
  911W        W 3676   6.177   1.472   0.554 -0.0737 -0.1533 -0.1044
  912W        W 3677   5.454   0.073   6.200 -0.0367  0.2142 -0.1442
  913W        W 3678   5.190   8.623   7.169  0.2836 -0.1518  0.1061
  914W        W 3679   3.551   1.735   0.945 -0.1023  0.1308 -0.0984
  915W        W 3680   7.340   2.221   5.580 -0.0172 -0.1555  0.1728
  916W        W 3681   4.498   5.724   0.903 -0.0167  0.1025  0.0289
  917W        W 3682   8.636   6.369   0.905  0.1116 -0.1309  0.0494
  918W        W 3683   6.628   4.041   1.161 -0.0219  0.5515  0.2489
  919W        W 3684   4.359   7.056   0.415  0.1152  0.1713  0.0599
  920W        W 3685   5.113   2.289   5.226 -0.1652  0.0977 -0.2217
  921W        W 3686   6.465   3.856   5.970 -0.3417  0.1826  0.1538
  922W        W 3687   1.693   3.593   0.003  0.1020  0.0399  0.1948
  923W        W 3688   5.384   7.856   1.909 -0.1747 -0.0179 -0.0513
  924W        W 3689   6.237   5.781   0.195 -0.1454 -0.0552  0.2682
  925W        W 3690   3.037   6.791   1.215  0.2481 -0.1911  0.0337
  926W        W 3691   4.463   3.452   5.164  0.0871  0.1464  0.4376
  927W        W 3692   7.479   4.692   1.665 -0.0496 -0.0233  0.1174
  928W        W 3693   7.232   0.681   0.572 -0.2269 -0.2651 -0.0038
  929W        W 3694   4.117   4.706   6.597 -0.0116 -0.2369 -0.1610
  930W        W 3695   3.453   0.807   6.350  0.1180  0.3775  0.2039
  931W        W 3696   0.845   7.257   0.429  0.3757 -0.1760  0.1678
  932W        W 3697   8.637   4.208   2.045  0.1389 -0.0946  0.0894
  933W        W 3698   1.275   3.966   6.960 -0.0652 -0.1475 -0.2423
  934W        W 3699   8.343   1.599   6.472  0.3951  0.4035  0.0799
  935W        W 3700   6.804   4.755   1.972  0.2009  0.1176 -0.0874
  936W        W 3701   1.268   0.458   6.065  0.2030  0.0352 -0.0398
  937W        W 3702   6.271   1.692   6.267 -0.2472 -0.0221 -0.0525
  938W        W 3703   5.028   5.733   6.876  0.0513 -0.2602 -0.0870
  939W        W 3704   6.788   5.359   5.370  0.1870  0.0341  0.0502
  940W        W 3705   6.297   8.776   1.554 -0.1918  0.1494  0.0120
  941W        W 3706   0.685   2.410   5.965 -0.2256 -0.5015  0.1347
  942W        W 3707   1.573   2.269   5.949 -0.1723  0.1121 -0.1248
  943W        W 3708   1.671   4.119   5.894 -0.0006 -0.0605  0.0616
  944W        W 3709   7.160   2.174   6.399 -0.2702 -0.1870  0.0367
  945W        W 3710   2.517   5.294   6.474 -0.0586  0.1361  0.3243
  946W        W 3711   6.167   6.971   0.791 -0.0017 -0.1993  0.1507
  947W        W 3712   1.820   3.057   0.233  0.1645  0.0884  0.0536
  948W        W 3713   8.814   5.405   0.728  0.1333 -0.1326  0.0804
  949W        W 3714   8.556   2.542   1.010  0.1209 -0.1733 -0.2081
  950W        W 3715   7.950   3.805   0.893  0.1507 -0.2456 -0.1183
  951W        W 3716   2.002   3.516   1.647 -0.0298  0.1478 -0.0207
  952W        W 3717   8.180   7.288   7.247  0.3050 -0.1865 -0.1521
  953W        W 3718   6.049   4.975   0.665  0.0114 -0.1171 -0.2408
  954W        W 3719   3.082   3.316   7.230 -0.2438 -0.0117 -0.2237
  955W        W 3720   0.380   2.081   2.080 -0.0198  0.0122 -0.0655
  956W        W 3721   3.521   3.457   7.080 -0.3338 -0.0460  0.0626
  957W        W 3722   0.951   7.225   1.391 -0.0094 -0.0858  0.2509
  958W        W 3723   2.647   5.519   0.640  0.0927  0.0762 -0.2846
  959W        W 3724   8.428   4.606   0.028 -0.0486  0.0527 -0.1351
  960W        W 3725   6.427   6.407   6.902 -0.0929  0.2304 -0.1530
  961W        W 3726   5.620   5.712   6.150 -0.2146 -0.1152  0.2847
  962W        W 3727   8.956   5.170   1.706 -0.0050 -0.0877 -0.1177
  963W        W 3728   4.182   5.322   7.187  0.0762 -0.0262  0.1536
  964W        W 3729   5.288   1.041   0.727 -0.1513  0.2804 -0.4545
  965W        W 3730   2.226   0.160   6.797 -0.1522 -0.0084 -0.0403
  966W        W 3731   2.300   1.475   0.390  0.1774 -0.0529  0.1953
  967W        W 3732   3.328   0.748   0.807 -0.0888  0.0650  0.2938
  968W        W 3733   5.397   1.084   6.067  0.1483  0.0728 -0.1610
  969W        W 3734   8.602   5.017   5.822  0.2564  0.3515 -0.2119
  970W        W 3735   5.661   1.364   0.762  0.1892 -0.3962  0.2217
  971W        W 3736   8.870   2.697   5.934  0.2081 -0.1375  0.4005
  972W        W 3737   2.411   8.009   0.665  0.1062  0.0600  0.0797
  973W        W 3738   1.002   2.497   1.037 -0.0198  0.3525 -0.1175
  974W        W 3739   8.253   8.724   6.321 -0.0569  0.1658 -0.2382
  975W        W 3740   3.134   1.849   7.291  0.0259  0.1743  0.2252
  976W        W 3741   3.957   4.439   0.634  0.0072  0.0239 -0.0703
  977W        W 3742   6.009   3.267   0.824  0.1209  0.1043 -0.2609
  978W        W 3743   1.406   7.191   1.141  0.1914  0.2795 -0.2698
  979W        W 3744   4.488   1.551   6.966 -0.2114  0.1798  0.0401
  980W        W 3745   1.054   1.105   5.564 -0.1726 -0.0781 -0.0273
  981W        W 3746   2.467   5.936   0.332  0.2476 -0.0887  0.0135
  982W        W 3747   5.661   3.063   0.217 -0.1598 -0.2172 -0.1733
  983W        W 3748   4.152   1.127   1.357  0.1248 -0.0504  0.0504
  984W        W 3749   6.126   0.858   7.274  0.2768 -0.1504 -0.0100
  985W        W 3750   4.798   4.344   0.633 -0.1190 -0.3491  0.5784
  986W        W 3751   3.028   7.480   6.021  0.0416 -0.2057 -0.1228
  987W        W 3752   6.191   2.755   0.026  0.0456  0.0320  0.0351
  988W        W 3753   3.515   4.707   6.626 -0.0817  0.3235  0.1059
  989W        W 3754   2.941   0.622   6.607  0.2668 -0.2213 -0.1499
  990W        W 3755   5.584   2.367   5.461 -0.3015  0.3414 -0.1664
  991W        W 3756   8.886   7.893   7.079 -0.2567  0.1028 -0.3229
  992W        W 3757   2.054   0.928   6.546 -0.1511  0.0318  0.2685
  993W        W 3758   8.857   3.710   6.064 -0.0505  0.2632  0.0661
  994W        W 3759   0.722   5.102   0.302  0.0497  0.0248  0.0062
  995W        W 3760   6.264   5.443   0.745 -0.0254 -0.0483 -0.1297
  996W        W 3761   6.727   8.683   6.806 -0.0112  0.3171 -0.1116
  997W        W 3762   4.102   2.694   5.298  0.2915  0.0777  0.1716
  998W        W 3763   5.938   4.369   6.449  0.1518  0.3864  0.0473
  999W        W 3764   5.066   8.994   0.645  0.0671  0.2575  0.0670
 1000W        W 3765   5.302   5.582   0.547  0.1449 -0.0495  0.3294
 1001W        W 3766   3.573   2.367   0.297 -0.0611  0.4797 -0.4248
 1002W        W 3767   8.441   7.796   1.726 -0.0714 -0.2838 -0.1783
 1003W        W 3768   1.318   5.891   6.936  0.1364 -0.0174  0.0744
 1004W        W 3769   7.483   0.689   6.623  0.0628 -0.0138 -0.0193
 1005W        W 3770   5.678   5.531   1.503 -0.1667  0.1223  0.3248
 1006W        W 3771   6.309   4.157   7.235  0.3547 -0.2108  0.2543
 1007W        W 3772   1.735   4.192   6.981  0.0986 -0.3262 -0.1042
 1008W        W 3773   4.319   0.523   6.925  0.0588  0.2969 -0.2784
 1009W        W 3774   8.542   0.511   5.723 -0.1858 -0.0474  0.1295
 1010W        W 3775   2.185   4.495   7.052 -0.1313  0.0627 -0.0311
 1011W        W 3776   5.404   2.154   0.751 -0.1599 -0.0776 -0.3096
 1012W        W 3777   6.581   0.860   6.451 -0.0675  0.0723 -0.2467
 1013W        W 3778   2.195   4.262   1.191  0.1896 -0.1690  0.1042
 1014W        W 3779   7.967   3.257   1.029 -0.3020 -0.0258  0.1338
 1015W        W 3780   8.770   6.154   7.275  0.0573 -0.1177  0.0205
 1016W        W 3781   5.676   8.728   7.152 -0.0004 -0.3902 -0.1343
 1017W        W 3782   5.062   3.622   0.690 -0.0933  0.1305  0.0838
 1018W        W 3783   8.520   0.645   6.922 -0.1722  0.5382 -0.0017
 1019W        W 3784   6.992   6.860   0.409 -0.1867 -0.0009  0.0325
 1020W        W 3785   6.791   3.458   5.999 -0.1703 -0.1254  0.2807
 1021W        W 3786   6.539   1.821   5.636 -0.0829 -0.3161  0.2237
 1022W        W 3787   1.206   5.911   0.130  0.2961  0.0913 -0.0581
 1023W        W 3788   1.421   8.116   0.514 -0.1371 -0.1064  0.2107
 1024W        W 3789   3.886   2.057   6.049  0.0281 -0.1011 -0.0359
 1025W        W 3790   4.526   8.296   6.424 -0.1444 -0.3264 -0.1474
 1026W        W 3791   1.866   5.861   1.223  0.1996  0.0725  0.0238
 1027W        W 3792   1.843   7.197   0.199  0.1587 -0.0311  0.0135
 1028W        W 3793   7.277   2.582   6.897 -0.1128 -0.2822 -0.2470
 1029W        W 3794   3.115   2.621   6.405  0.1375 -0.0609  0.0158
 1030W        W 3795   8.737   3.242   0.553 -0.4543  0.0258 -0.1869
 1031W        W 3796   0.205   6.699   6.680 -0.0725 -0.2974  0.0645
 1032W        W 3797   0.844   8.229   5.978  0.2509 -0.1501  0.2805
 1033W        W 3798   1.155   5.044   0.985  0.0708 -0.0567 -0.2615
 1034W        W 3799   1.475   1.073   1.609 -0.2840  0.0052  0.1207
 1035W        W 3800   0.978   5.633   5.161  0.1258  0.0020 -0.0358
 1036W        W 3801   0.872   2.087   1.309 -0.1448  0.1623  0.0796
 1037W        W 3802   6.017   0.988   0.896  0.1575  0.1601 -0.0530
 1038W        W 3803   4.856   0.559   7.089  0.1786  0.0594  0.0886
 1039W        W 3804   2.405   0.086   0.613 -0.1812  0.1683  0.0925
 1040W        W 3805   8.906   3.475   0.169 -0.1696  0.2653  0.0409
 1041W        W 3806   3.169   3.722   1.189 -0.0714  0.2619  0.1137
 1042W        W 3807   5.482   1.310   6.810 -0.0705  0.1527  0.2295
 1043W        W 3808   3.326   7.692   6.462 -0.0478 -0.1251 -0.1727
 1044W        W 3809   6.981   5.150   7.237 -0.3259  0.3934  0.3118
 1045W        W 3810   6.684   3.158   1.470 -0.0645  0.1723 -0.1212
 1046W        W 3811   5.477   5.038   1.531  0.0917 -0.2510  0.0150
 1047W        W 3812   8.328   0.794   6.110  0.0059  0.2215 -0.0469
 1048W        W 3813   8.570   6.563   1.436 -0.1866  0.1389  0.0550
 1049W        W 3814   6.108   6.185   7.187 -0.1740 -0.0444 -0.2013
 1050W        W 3815   3.720   3.112   1.741 -0.0562 -0.1788  0.0971
 1051W        W 3816   5.796   5.303   6.446 -0.1607  0.1219  0.0360
 1052W        W 3817   3.590   8.427   5.311 -0.0519 -0.0370 -0.1344
 1053W        W 3818   1.915   8.108   0.583  0.2269  0.0591 -0.0245
 1054W        W 3819   1.849   1.145   6.131  0.0058 -0.1386  0.1359
 1055W        W 3820   2.777   7.817   6.232 -0.4350  0.0991  0.0875
 1056W        W 3821   7.722   0.061   7.275 -0.0274  0.2691 -0.0084
 1057W        W 3822   4.019   7.785   0.674 -0.1096 -0.0688  0.1988
 1058W        W 3823   1.183   0.748   7.234  0.2897  0.3638 -0.1059
 1059W        W 3824   4.779   7.687   5.835 -0.0473  0.4349  0.0777
 1060W        W 3825   5.135   5.018   1.068  0.4076 -0.0136 -0.1015
 1061W        W 3826   0.850   8.174   7.205  0.0365 -0.2273 -0.0045
 1062W        W 3827   8.210   8.384   5.452  0.3170  0.0483 -0.2914
 1063W        W 3828   7.987   8.041   1.257  0.0206 -0.2478 -0.1350
 1064W        W 3829   2.576   7.416   1.559 -0.0979  0.0037 -0.1176
 1065W        W 3830   1.591   1.705   5.867 -0.0976  0.6364 -0.1987
 1066W        W 3831   3.573   1.056   0.009  0.0822 -0.0954 -0.0818
 1067W        W 3832   4.276   6.336   0.407 -0.0079 -0.1250  0.3205
 1068W        W 3833   4.132   4.938   1.428 -0.1522  0.3462 -0.0956
 1069W        W 3834   4.773   4.148   6.440  0.1794 -0.1867  0.1316
 1070W        W 3835   2.633   1.584   5.824  0.0050 -0.0043  0.1093
 1071W        W 3836   6.165   3.707   0.107  0.1578  0.2230 -0.0043
 1072W        W 3837   5.835   1.057   0.398  0.0153 -0.5478 -0.1365
 1073W        W 3838   3.801   3.101   1.155  0.1016 -0.0620  0.1911
 1074W        W 3839   1.058   0.060   1.349  0.0006  0.0175  0.3302
 1075W        W 3840   6.187   8.661   6.645 -0.0634  0.0065 -0.1279
 1076W        W 3841   3.808   1.241   6.341  0.0086 -0.0658 -0.0496
 1077W        W 3842   4.017   6.423   7.210 -0.2224 -0.0144  0.0562
 1078W        W 3843   6.095   3.983   0.939 -0.2786  0.0769 -0.2239
 1079W        W 3844   1.824   2.817   5.314  0.1454  0.2611  0.2487
 1080W        W 3845   0.114   1.963   5.694  0.1076  0.0237  0.0627
 1081W        W 3846   1.772   3.695   6.297  0.1052  0.1385  0.0293
 1082W        W 3847   3.432   1.078   1.883 -0.3241 -0.1498  0.0271
 1083W        W 3848   3.238   8.091   7.271  0.3218  0.1062 -0.4534
 1084W        W 3849   4.333   2.741   6.881 -0.1593 -0.1543  0.0209
 1085W        W 3850   3.040   1.785   4.959 -0.2150 -0.1054  0.0401
 1086W        W 3851   7.812   6.515   6.757  0.1620 -0.2161  0.3092
 1087W        W 3852   0.964   6.124   1.211  0.1554  0.2264  0.0044
 1088W        W 3853   1.997   0.260   5.336  0.0004 -0.1064 -0.3412
 1089W        W 3854   4.262   7.533   0.332  0.0848 -0.2047 -0.0166
 1090W        W 3855   6.161   4.751   1.658  0.0371 -0.3938  0.1537
 1091W        W 3856   3.874   4.947   0.653  0.1215 -0.1122 -0.1180
 1092W        W 3857   0.382   2.569   6.731 -0.1643 -0.1384 -0.1849
 1093W        W 3858   5.379   4.326   5.715  0.1144  0.0619 -0.0657
 1094W        W 3859   6.819   5.998   6.210  0.2002 -0.1731 -0.3082
 1095W        W 3860   7.212   1.721   7.024  0.3753 -0.0038 -0.0109
 1096W        W 3861   3.032   3.071   6.182 -0.1807 -0.1399 -0.0601
 1097W        W 3862   5.934   7.038   6.354  0.1205 -0.1570 -0.0242
 1098W        W 3863   6.681   3.512   6.823 -0.1195 -0.1742 -0.0374
 1099W        W 3864   3.327   7.084   0.033  0.2334 -0.0287 -0.1933
 1100W        W 3865   8.498   0.492   0.215 -0.2517  0.1950 -0.0090
 1101W        W 3866   8.636   7.186   1.621  0.1143 -0.1472  0.0411
 1102W        W 3867   4.640   2.781   1.736  0.1237  0.0873  0.1205
 1103W        W 3868   4.311   7.712   7.188  0.0432 -0.2082  0.0765
 1104W        W 3869   5.032   6.783   0.469 -0.1458  0.0225  0.2117
 1105W        W 3870   7.435   8.275   0.925 -0.3474 -0.4504 -0.0980
 1106W        W 3871   7.167   5.923   2.086 -0.1264  0.5933  0.3141
 1107W        W 3872   0.472   5.510   0.001 -0.1454  0.0962  0.1810
 1108W        W 3873   7.381   2.776   5.587  0.0789  0.1207  0.0070
 1109W        W 3874   2.602   3.542   7.293 -0.0242  0.1824 -0.0236
 1110W        W 3875   6.406   5.054   0.992 -0.1334  0.4754 -0.3479
 1111W        W 3876   0.099   0.441   1.562  0.1338 -0.0781 -0.1731
 1112W        W 3877   5.289   3.334   1.481  0.1552 -0.0523 -0.3030
 1113W        W 3878   3.600   3.083   5.729 -0.1214  0.2302 -0.0315
 1114W        W 3879   5.072   8.129   5.625 -0.0026 -0.1470 -0.1643
 1115W        W 3880   4.110   3.964   1.368  0.0020 -0.3350 -0.2797
 1116W        W 3881   2.227   1.991   1.020  0.0107 -0.2062  0.0689
 1117W        W 3882   0.142   3.156   5.092 -0.1816  0.0354  0.1760
 1118W        W 3883   8.147   4.907   6.437 -0.4219 -0.2443  0.2416
 1119W        W 3884   5.098   2.383   1.114  0.2472  0.1191 -0.1633
 1120W        W 3885   3.398   7.274   6.228 -0.4325  0.5671  0.2831
 1121W        W 3886   3.422   2.319   7.032  0.2241  0.3777 -0.0564
 1122W        W 3887   6.582   6.799   7.242  0.0928 -0.3622 -0.0447
 1123W        W 3888   8.023   4.895   0.677  0.1239  0.2274  0.2058
 1124W        W 3889   0.583   3.918   5.962 -0.0958 -0.2260 -0.1458
 1125W        W 3890   1.477   6.452   6.135 -0.3079  0.0504 -0.2340
 1126W        W 3891   1.606   1.257   1.115  0.4402 -0.3185 -0.0549
 1127W        W 3892   1.785   3.710   6.792  0.3249 -0.0250 -0.3230
 1128W        W 3893   5.113   7.192   5.804 -0.0162 -0.1738 -0.1750
 1129W        W 3894   5.069   7.957   1.472  0.2428 -0.0082 -0.0707
 1130W        W 3895   4.293   0.055   0.431  0.0281 -0.1424 -0.0622
 1131W        W 3896   2.950   2.477   6.895  0.0864 -0.0809 -0.2154
 1132W        W 3897   4.057   3.273   5.651  0.1443  0.1709  0.1024
 1133W        W 3898   4.352   4.443   1.421 -0.1702  0.2160  0.1341
 1134W        W 3899   5.801   1.849   0.457 -0.1948  0.0080  0.1394
 1135W        W 3900   3.455   5.241   6.815  0.1130  0.1318  0.2250
 1136W        W 3901   4.002   0.815   6.157  0.1698  0.2437  0.0029
 1137W        W 3902   6.239   0.656   6.161  0.1262  0.0789  0.4574
 1138W        W 3903   2.112   6.803   6.855 -0.1518 -0.0575 -0.2337
 1139W        W 3904   7.597   5.187   1.843  0.0512 -0.1250  0.0886
 1140W        W 3905   7.360   1.221   6.764 -0.0365  0.0753 -0.0861
 1141W        W 3906   3.583   6.579   1.154 -0.0219  0.0778 -0.0110
 1142W        W 3907   8.829   7.146   7.248 -0.2310  0.3580  0.0005
 1143W        W 3908   2.927   5.782   0.261  0.4541 -0.0162 -0.2687
 1144W        W 3909   6.254   4.204   5.402  0.2439  0.1671  0.0729
 1145W        W 3910   8.896   8.912   0.704  0.0825 -0.0667  0.3311
 1146W        W 3911   5.948   1.300   6.920  0.0043 -0.0522  0.2943
 1147W        W 3912   6.743   4.781   6.353 -0.1438  0.1963 -0.0232
 1148W        W 3913   7.140   2.968   0.104  0.0062 -0.2282  0.2347
 1149W        W 3914   4.686   8.188   1.143  0.1351  0.1335 -0.0045
 1150W        W 3915   1.070   1.374   6.521  0.1192  0.1433 -0.1775
 1151W        W 3916   7.986   5.579   0.143 -0.1353  0.1023  0.3091
 1152W        W 3917   2.790   1.995   1.605  0.0877  0.0750  0.0968
 1153W        W 3918   5.850   5.181   1.916  0.4449  0.0895  0.1578
 1154W        W 3919   2.595   0.405   1.039  0.1316 -0.0793 -0.2108
 1155W        W 3920   5.331   1.353   1.154  0.0021 -0.0680  0.2727
 1156W        W 3921   1.613   6.835   0.824 -0.0572 -0.1815 -0.0992
 1157W        W 3922   3.852   8.818   7.088  0.1062 -0.0564 -0.1962
 1158W        W 3923   3.469   5.174   5.306 -0.1217 -0.2595  0.0888
 1159W        W 3924   7.651   8.846   1.354  0.0816 -0.0558 -0.1664
 1160W        W 3925   6.924   7.260   0.162  0.0750  0.1235 -0.0214
 1161W        W 3926   7.053   4.502   6.646  0.0997  0.3845 -0.0229
 1162W        W 3927   7.140   2.843   1.250  0.3186 -0.0073 -0.1350
 1163W        W 3928   8.060   8.260   6.974 -0.1654  0.0734 -0.1602
 1164W        W 3929   0.361   1.603   0.927 -0.0628 -0.0599 -0.1122
 1165W        W 3930   7.297   1.143   0.378  0.1824 -0.0987 -0.2644
 1166W        W 3931   5.883   0.191   6.879 -0.1722  0.1973  0.0033
 1167W        W 3932   0.212   1.746   6.923 -0.0105 -0.1609 -0.0470
 1168W        W 3933   6.840   6.312   0.425  0.0352 -0.1764 -0.2804
 1169W        W 3934   4.080   0.621   1.206  0.1386  0.2192  0.1665
 1170W        W 3935   7.689   3.006   6.162  0.2150 -0.4483 -0.1840
 1171W        W 3936   0.784   0.539   0.079  0.2711 -0.1121 -0.2370
 1172W        W 3937   3.013   6.926   6.256  0.2425  0.0414  0.4207
 1173W        W 3938   1.129   5.300   5.703 -0.1872 -0.0737  0.1657
 1174W        W 3939   1.751   5.114   1.613 -0.1144  0.0453  0.0035
 1175W        W 3940   6.567   6.250   0.805 -0.1458 -0.1649 -0.0899
 1176W        W 3941   1.941   4.263   0.149 -0.1689  0.0744 -0.2461
 1177W        W 3942   6.130   1.857   7.128  0.1401  0.2348  0.0451
 1178W        W 3943   1.144   4.509   6.375  0.1380  0.1967  0.1312
 1179W        W 3944   5.252   3.521   0.219 -0.1282 -0.3032 -0.0763
 1180W        W 3945   1.480   5.948   6.225 -0.1189  0.2062 -0.4389
 1181W        W 3946   8.025   1.925   6.652  0.1623  0.1177 -0.3331
 1182W        W 3947   8.234   8.038   5.866  0.0555 -0.0304 -0.0762
 1183W        W 3948   8.386   2.785   0.489  0.0617 -0.0155 -0.0564
 1184W        W 3949   7.275   0.180   1.233  0.0330 -0.0368 -0.0087
 1185W        W 3950   0.905   3.371   5.073 -0.0476 -0.1927  0.2087
 1186W        W 3951   8.783   8.063   5.737  0.1934 -0.3043 -0.0232
 1187W        W 3952   0.465   6.558   1.891  0.2210  0.1169 -0.4828
 1188W        W 3953   2.256   6.830   5.467 -0.0603  0.0995 -0.0425
 1189W        W 3954   1.795   6.761   1.304  0.0917 -0.1858  0.2648
 1190W        W 3955   1.753   6.730   7.271 -0.5689 -0.0752  0.4404
 1191W        W 3956   5.518   2.494   0.351 -0.1843  0.2325 -0.0805
 1192W        W 3957   6.530   6.846   5.663 -0.0055 -0.1729  0.0827
 1193W        W 3958   6.267   5.274   0.229  0.0866  0.2113 -0.1794
 1194W        W 3959   2.134   4.797   1.298  0.1260  0.1044  0.0789
 1195W        W 3960   5.841   0.410   6.456  0.1857  0.1248 -0.1386
 1196W        W 3961   4.278   3.448   6.312 -0.1003  0.0075 -0.1781
 1197W        W 3962   2.426   8.912   1.076 -0.0233  0.1070 -0.1541
 1198W        W 3963   3.780   0.542   6.650  0.0983 -0.0873 -0.3275
 1199W        W 3964   6.322   0.157   6.409 -0.1247 -0.3897  0.2920
 1200W        W 3965   3.947   6.695   6.595  0.0948  0.0219 -0.4216
 1201W        W 3966   8.460   3.668   5.360  0.0220  0.0078 -0.0071
 1202W        W 3967   8.841   5.537   5.913 -0.1192  0.1042 -0.2739
 1203W        W 3968   6.373   3.935   6.675  0.2879 -0.1415 -0.1668
 1204W        W 3969   0.474   0.228   6.820 -0.1203 -0.1650 -0.3089
 1205W        W 3970   2.241   3.010   7.172 -0.3287 -0.0142 -0.0770
 1206W        W 3971   6.867   4.680   0.609  0.0692  0.1422 -0.2146
 1207W        W 3972   8.380   4.525   0.634 -0.0910  0.2103  0.3408
 1208W        W 3973   6.167   3.508   6.848 -0.0642 -0.3968  0.0046
 1209W        W 3974   0.807   1.195   6.025  0.2887  0.2790 -0.1036
 1210W        W 3975   8.665   6.082   1.498  0.0848  0.2285 -0.3008
 1211W        W 3976   8.401   2.200   6.921  0.0476  0.3590 -0.0285
 1212W        W 3977   7.551   2.867   1.008 -0.1017  0.1801 -0.0335
 1213W        W 3978   7.575   6.334   0.708  0.1817  0.2075 -0.0867
 1214W        W 3979   3.760   8.263   7.275  0.1616 -0.1602  0.4072
 1215W        W 3980   7.963   3.350   0.074  0.1667  0.0136  0.2400
 1216W        W 3981   6.260   1.352   0.052  0.1646 -0.1819 -0.3179
 1217W        W 3982   7.679   0.622   7.124  0.0958 -0.0940  0.1303
 1218W        W 3983   2.355   1.283   6.235  0.1979  0.0813 -0.3437
 1219W        W 3984   1.495   5.691   0.441  0.0229 -0.0248 -0.2075
 1220W        W 3985   3.713   2.866   0.572 -0.0555 -0.0798  0.2775
 1221W        W 3986   3.804   4.201   6.549 -0.1465  0.1827  0.0853
 1222W        W 3987   6.453   8.307   0.256  0.1733  0.3507 -0.1415
 1223W        W 3988   1.621   7.341   0.655  0.0474 -0.2411 -0.0019
 1224W        W 3989   2.060   0.650   6.132 -0.2950 -0.0405 -0.3823
 1225W        W 3990   8.283   8.922   0.576  0.1374  0.1501  0.0026
 1226W        W 3991   5.232   8.448   1.241 -0.1859 -0.1212  0.0658
 1227W        W 3992   0.672   5.982   6.126  0.0949 -0.0428  0.2117
 1228W        W 3993   1.156   0.921   6.314 -0.2904 -0.1873  0.0399
 1229W        W 3994   7.105   6.501   0.801  0.0084  0.1537 -0.1790
 1230W        W 3995   1.227   0.028   6.338 -0.3174 -0.0270  0.1027
 1231W        W 3996   3.377   6.872   1.616 -0.4002  0.0603  0.4175
 1232W        W 3997   0.741   1.625   1.433  0.0938  0.2533  0.0603
 1233W        W 3998   0.274   4.402   0.833 -0.2557  0.0755 -0.3030
 1234W        W 3999   4.812   2.526   7.043  0.0216  0.1168  0.0104
 1235W        W 4000   5.620   3.061   6.177  0.1747 -0.0566 -0.1274
 1236W        W 4001   5.708   8.251   6.857 -0.2258 -0.1231 -0.0064
 1237W        W 4002   1.040   1.534   5.153  0.1636 -0.4918 -0.2167
 1238W        W 4003   4.305   1.753   0.321 -0.1331  0.2173 -0.1971
 1239W        W 4004   0.905   0.716   5.307  0.1306  0.0653  0.0155
 1240W        W 4005   5.287   5.063   4.995  0.1474  0.0295 -0.0845
 1241W        W 4006   1.797   1.466   1.478 -0.0115 -0.0396  0.0590
 1242W        W 4007   8.396   1.579   5.846 -0.0535 -0.1628  0.0317
 1243W        W 4008   6.881   7.060   2.003  0.2171  0.1140 -0.2935
 1244W        W 4009   2.822   1.083   0.332 -0.2798  0.0109 -0.0622
 1245W        W 4010   5.468   7.942   1.162  0.3650 -0.2374  0.2318
 1246W        W 4011   4.552   0.232   5.554  0.2672  0.1538 -0.2400
 1247W        W 4012   2.453   0.546   6.517 -0.1920 -0.1797  0.0570
 1248W        W 4013   8.593   4.898   1.017 -0.2729 -0.2630 -0.0867
 1249W        W 4014   0.342   2.082   1.078  0.1581  0.1501 -0.0965
 1250W        W 4015   0.227   3.762   5.701 -0.1503  0.2316  0.0654
 1251W        W 4016   6.624   8.736   6.283 -0.0674  0.2013  0.1040
 1252W        W 4017   8.686   7.024   5.845 -0.1252  0.1281  0.0328
 1253W        W 4018   8.000   0.418   0.617 -0.2381 -0.0847  0.0719
 1254W        W 4019   2.536   3.569   0.640 -0.3145  0.2402  0.1262
 1255W        W 4020   2.721   2.980   5.745  0.1430 -0.1546 -0.1548
 1256W        W 4021   7.707   5.093   0.990 -0.3902 -0.1147 -0.0498
 1257W        W 4022   8.773   5.433   6.370  0.0029 -0.2203 -0.1011
 1258W        W 4023   0.052   1.231   0.047  0.3483  0.1920 -0.0724
 1259W        W 4024   8.897   4.324   1.614 -0.2782  0.0867 -0.0976
 1260W        W 4025   0.982   0.928   0.380  0.1598 -0.4763  0.1015
 1261W        W 4026   5.486   2.538   6.209  0.0926 -0.0639  0.0042
 1262W        W 4027   1.780   1.309   0.566 -0.2681  0.0412 -0.0201
 1263W        W 4028   8.120   3.938   6.616 -0.2288  0.3201 -0.3792
 1264W        W 4029   1.256   4.436   5.894 -0.0067 -0.1413 -0.5358
 1265W        W 4030   8.306   1.016   6.593  0.0548  0.0988 -0.1785
 1266W        W 4031   6.618   7.753   0.100 -0.0198  0.1216 -0.3320
 1267W        W 4032   5.820   0.830   6.845 -0.2066 -0.1434 -0.2460
 1268W        W 4033   5.257   6.098   0.511 -0.2898 -0.1243  0.2000
 1269W        W 4034   0.320   3.408   1.355 -0.0668 -0.0846  0.0680
 1270W        W 4035   8.895   1.798   0.014  0.0208 -0.1635 -0.0171
 1271W        W 4036   8.013   5.752   1.529 -0.0773 -0.0894 -0.3125
 1272W        W 4037   8.518   2.649   7.190 -0.1321 -0.0470  0.4064
 1273W        W 4038   7.619   3.139   1.446 -0.0030 -0.1447 -0.3730
 1274W        W 4039   0.418   1.057   5.702 -0.0989  0.1694 -0.1695
 1275W        W 4040   2.490   0.261   0.117 -0.2611  0.1995 -0.0396
 1276W        W 4041   3.738   1.551   0.235  0.2152 -0.2392  0.1723
 1277W        W 4042   4.289   0.811   0.698 -0.1289 -0.2248 -0.0552
 1278W        W 4043   3.936   2.628   1.069 -0.1754 -0.2313  0.3430
 1279W        W 4044   7.429   3.243   6.544  0.2843 -0.2821  0.0783
 1280W        W 4045   4.810   5.461   5.931 -0.1931  0.1340 -0.4056
 1281W        W 4046   2.559   3.380   5.468  0.3184 -0.2464  0.2162
 1282W        W 4047   2.261   6.279   6.561  0.0141 -0.0321 -0.3444
 1283W        W 4048   7.873   7.274   6.762 -0.0528 -0.0393 -0.0074
 1284W        W 4049   8.706   3.245   6.547  0.0243  0.2884 -0.2346
 1285W        W 4050   7.977   4.272   0.198 -0.2649  0.0295 -0.1848
 1286W        W 4051   2.017   1.781   0.635 -0.0715 -0.0782 -0.2084
 1287W        W 4052   1.334   6.820   6.575 -0.3705 -0.0933  0.3580
 1288W        W 4053   2.346   1.847   1.895  0.0678  0.1684  0.0623
 1289W        W 4054   7.955   2.820   4.946  0.2075 -0.0706  0.0841
 1290W        W 4055   4.591   6.660   0.649 -0.0568  0.0232  0.0806
 1291W        W 4056   8.946   2.754   6.918  0.1172  0.1019 -0.0396
 1292W        W 4057   4.605   1.753   6.488 -0.0971  0.5411  0.1296
 1293W        W 4058   6.228   0.557   5.574 -0.0169 -0.0119 -0.0086
 1294W        W 4059   6.566   1.409   0.816  0.2871 -0.0478  0.2412
 1295W        W 4060   3.090   5.220   0.386  0.1548 -0.1394 -0.0098
 1296W        W 4061   7.631   5.233   0.016  0.3098  0.0850  0.0357
 1297W        W 4062   5.628   6.790   0.481 -0.0809  0.0620  0.0564
 1298W        W 4063   7.598   0.419   0.336  0.1692 -0.3910  0.1817
 1299W        W 4064   0.613   4.656   5.048  0.1304  0.1487 -0.1334
 1300W        W 4065   5.392   3.869   7.041  0.0094 -0.0662  0.1664
 1301W        W 4066   2.898   0.132   0.439 -0.4091  0.1159  0.0100
 1302W        W 4067   5.744   5.743   5.648 -0.0787  0.2099 -0.0467
 1303W        W 4068   3.540   0.138   6.864  0.2098 -0.0200 -0.3567
 1304W        W 4069   6.118   3.714   5.661  0.0103  0.0080 -0.3054
 1305W        W 4070   7.279   0.390   6.943  0.1366  0.0426 -0.2941
 1306W        W 4071   3.047   1.136   6.609  0.2080 -0.4502 -0.0171
 1307W        W 4072   8.746   6.361   6.332 -0.1356 -0.1017  0.1001
 1308W        W 4073   0.486   5.997   6.635 -0.0640 -0.1625  0.2372
 1309W        W 4074   8.436   2.588   6.181  0.3948  0.0975  0.1139
 1310W        W 4075   1.910   2.337   1.247  0.1546 -0.0229  0.2060
 1311W        W 4076   7.740   5.590   6.984  0.1559 -0.1658  0.0306
 1312W        W 4077   6.260   1.955   0.643  0.0620  0.0831 -0.0727
 1313W        W 4078   0.310   8.656   0.983  0.1022 -0.1690 -0.0474
 1314W        W 4079   3.753   6.287   0.368 -0.1866 -0.2380  0.0519
 1315W        W 4080   4.145   8.788   0.946  0.2461  0.0283  0.0408
 1316W        W 4081   1.710   8.562   0.694  0.1018  0.0843  0.0623
 1317W        W 4082   2.202   3.098   6.556  0.1862  0.0391  0.1060
 1318W        W 4083   2.374   1.025   0.521  0.1813 -0.3434  0.0317
 1319W        W 4084   4.557   1.554   5.984 -0.0051  0.2552 -0.1999
 1320W        W 4085   0.819   2.994   1.148 -0.2567 -0.3140  0.0785
 1321W        W 4086   1.687   5.455   0.828  0.0657  0.1702  0.0458
 1322W        W 4087   0.502   2.871   5.836 -0.2183 -0.2440  0.0829
 1323W        W 4088   6.799   1.864   0.632  0.1087 -0.1379  0.3897
 1324W        W 4089   3.900   7.581   1.106 -0.0234 -0.1179  0.2219
 1325W        W 4090   4.835   5.600   1.234  0.0535 -0.0918  0.0116
 1326W        W 4091   0.338   7.027   7.028  0.2708 -0.0281  0.3884
 1327W        W 4092   2.098   3.826   5.930  0.0263 -0.2267 -0.1231
 1328W        W 4093   7.642   0.294   6.125  0.0709  0.4389 -0.1456
 1329W        W 4094   0.357   0.626   5.979  0.0933  0.1570 -0.1180
 1330W        W 4095   0.866   6.860   6.960 -0.0284 -0.1371  0.0405
 1331W        W 4096   1.883   4.791   7.288  0.0306 -0.0348 -0.0430
 1332W        W 4097   0.188   6.408   0.781 -0.1668  0.0957 -0.4085
 1333W        W 4098   8.132   0.386   7.179 -0.0297 -0.1472  0.0113
 1334W        W 4099   1.637   0.440   0.202 -0.5469  0.0949 -0.0441
 1335W        W 4100   3.033   6.739   0.251  0.3589  0.0904 -0.0467
 1336W        W 4101   5.627   0.689   0.643  0.1051  0.0187 -0.3897
 1337W        W 4102   0.701   0.033   6.361 -0.2817 -0.3626 -0.0445
 1338W        W 4103   5.349   7.597   0.719 -0.0621 -0.2270 -0.2874
 1339W        W 4104   0.835   2.918   6.806  0.0673  0.1724  0.1469
 1340W        W 4105   1.119   6.172   5.914  0.2450 -0.2029  0.2845
 1341W        W 4106   4.708   6.468   1.353  0.4035  0.0025 -0.3522
 1342W        W 4107   0.725   3.761   0.324  0.0701  0.1485 -0.0253
 1343W        W 4108   8.195   7.621   0.835  0.2038 -0.0067 -0.0473
 1344W        W 4109   6.760   7.416   1.599  0.0446  0.0837 -0.3753
 1345W        W 4110   4.942   1.953   6.813  0.4089 -0.1308 -0.1307
 1346W        W 4111   4.213   0.098   6.246  0.0267  0.0955  0.2611
 1347W        W 4112   0.809   0.992   6.668  0.0224  0.2420  0.4732
 1348W        W 4113   4.427   7.441   0.818  0.0489  0.1468 -0.3335
 1349W        W 4114   0.393   0.011   1.826 -0.1820  0.0277  0.0626
 1350W        W 4115   4.505   5.954   1.382 -0.0370 -0.0449 -0.1582
 1351W        W 4116   5.216   2.887   7.066 -0.2534  0.0146  0.0937
 1352W        W 4117   8.606   7.896   0.597 -0.1323  0.0705 -0.0533
 1353W        W 4118   3.334   6.738   5.844 -0.2259 -0.1609 -0.1529
 1354W        W 4119   7.561   5.525   6.552 -0.2866 -0.2634 -0.0274
 1355W        W 4120   8.479   5.532   1.436 -0.0960 -0.1440 -0.3263
 1356W        W 4121   3.506   5.728   0.357 -0.1119 -0.0958 -0.0591
 1357W        W 4122   6.675   6.672   1.027 -0.1232  0.2156  0.0306
 1358W        W 4123   2.938   4.761   0.764  0.1080  0.0455 -0.3181
 1359W        W 4124   1.156   4.574   0.413 -0.1310  0.0463  0.1175
 1360W        W 4125   4.564   7.871   0.624  0.0122 -0.0542  0.0862
 1361W        W 4126   6.019   3.391   6.040 -0.0073  0.2060 -0.0031
 1362W        W 4127   0.593   2.089   6.802  0.0442  0.0576  0.2115
 1363W        W 4128   1.713   2.192   0.772 -0.1391  0.0434  0.1664
 1364W        W 4129   8.034   5.147   7.030  0.1720 -0.2264 -0.1954
 1365W        W 4130   4.846   2.101   2.057  0.2545 -0.2578 -0.2032
 1366W        W 4131   6.166   4.654   0.290 -0.1389  0.0050 -0.3813
 1367W        W 4132   1.233   3.902   5.707  0.0189  0.1554  0.0943
 1368W        W 4133   2.786   8.857   7.135 -0.2742  0.2699 -0.4162
 1369W        W 4134   7.425   4.307   5.937  0.1383  0.1291 -0.1104
 1370W        W 4135   1.725   2.603   6.304  0.3509 -0.1106 -0.3124
 1371W        W 4136   0.799   2.058   6.296  0.0676 -0.1022 -0.4312
 1372W        W 4137   4.737   3.695   0.344 -0.2227 -0.0223 -0.0991
 1373W        W 4138   7.426   8.850   5.986 -0.0382  0.2174  0.1065
 1374W        W 4139   4.578   5.109   0.484 -0.3338  0.0082  0.1698
 1375W        W 4140   7.399   8.780   0.893 -0.0247 -0.1153  0.2312
 1376W        W 4141   3.616   1.266   1.171 -0.0073 -0.1745 -0.0630
 1377W        W 4142   0.011   7.454   5.560 -0.2487 -0.1864  0.1563
 1378W        W 4143   7.699   0.196   6.778 -0.5310  0.0034  0.0195
 1379W        W 4144   1.418   2.562   5.488  0.2504 -0.0518 -0.2090
 1380W        W 4145   5.912   3.910   6.950  0.4025 -0.0874 -0.0337
 1381W        W 4146   8.495   5.296   6.793  0.0228 -0.4297 -0.0852
 1382W        W 4147   0.600   1.230   1.164  0.1572  0.0085 -0.2646
 1383W        W 4148   8.233   0.055   5.602  0.0478  0.0088  0.1307
 1384W        W 4149   1.380   2.867   6.715 -0.1033  0.2366 -0.0242
 1385W        W 4150   1.162   1.644   5.672 -0.3827  0.3201  0.0692
 1386W        W 4151   6.876   1.435   1.634  0.0269  0.1665  0.0871
 1387W        W 4152   0.962   2.471   6.829 -0.0033 -0.1413 -0.4390
 1388W        W 4153   0.233   4.960   0.905  0.1518 -0.1437  0.1010
 1389W        W 4154   1.808   8.523   0.211 -0.0886  0.2450 -0.2390
 1390W        W 4155   8.329   1.527   6.981  0.2042 -0.0130 -0.0146
 1391W        W 4156   8.361   6.930   6.819  0.0782 -0.0423  0.2619
 1392W        W 4157   5.310   7.182   0.380  0.3798 -0.1984  0.1482
 1393W        W 4158   7.850   4.859   5.306  0.1627 -0.2067  0.0847
 1394W        W 4159   0.194   5.147   0.420 -0.3260  0.3132  0.1175
 1395W        W 4160   8.505   3.136   0.085 -0.1162 -0.0251  0.1140
 1396W        W 4161   5.210   5.921   0.969 -0.0684 -0.3178  0.1537
 1397W        W 4162   0.805   4.815   6.197 -0.2233  0.0287 -0.3309
 1398W        W 4163   7.942   0.768   0.213 -0.1993 -0.0408 -0.0280
 1399W        W 4164   5.781   1.537   6.423  0.2063  0.2354 -0.1277
 1400W        W 4165   4.839   5.234   5.506  0.4806  0.3033 -0.0143
 1401W        W 4166   3.911   6.863   0.212 -0.0366  0.1857 -0.1771
 1402W        W 4167   3.646   7.877   0.393  0.0533 -0.1879  0.1266
 1403W        W 4168   6.466   7.270   6.590  0.0716 -0.0759  0.0438
 1404W        W 4169   1.526   0.310   0.710  0.0331  0.0514  0.2491
 1405W        W 4170   3.701   6.928   7.064  0.0057 -0.0676 -0.0253
 1406W        W 4171   6.635   3.567   0.313  0.2635  0.1303 -0.1939
 1407W        W 4172   3.207   1.387   7.101 -0.1847 -0.0564 -0.0501
 1408W        W 4173   7.118   6.037   0.156 -0.3137  0.0356 -0.0524
 1409W        W 4174   3.271   5.497   1.261 -0.5387 -0.0579 -0.0144
 1410W        W 4175   7.201   5.381   6.135 -0.3325 -0.0082 -0.1973
 1411W        W 4176   5.121   4.781   1.746 -0.0453  0.1437  0.0632
 1412W        W 4177   7.233   5.565   5.673  0.3321 -0.1020 -0.0619
 1413W        W 4178   5.221   8.045   6.947 -0.0822 -0.0450 -0.2827
 1414W        W 4179   1.095   8.774   7.190 -0.0083  0.0662  0.3016
 1415W        W 4180   3.611   6.418   1.958 -0.2890  0.1559 -0.0719
 1416W        W 4181   5.261   6.024   5.861  0.1964 -0.1145  0.5242
 1417W        W 4182   4.995   3.321   6.967 -0.0678  0.0121 -0.0855
 1418W        W 4183   4.455   5.125   1.818  0.2802  0.0628 -0.2621
 1419W        W 4184   5.153   0.500   0.706  0.1091 -0.2047 -0.2436
 1420W        W 4185   8.069   6.808   0.433 -0.1210 -0.1408 -0.1576
 1421W        W 4186   7.466   1.656   0.244  0.2211 -0.3718  0.1781
 1422W        W 4187   2.708   5.616   1.148 -0.0647 -0.0358  0.0567
 1423W        W 4188   1.397   6.961   0.412 -0.1160  0.2431  0.0688
 1424W        W 4189   8.675   5.652   7.291  0.1041 -0.1057  0.1679
 1425W        W 4190   0.835   3.201   7.214 -0.1989 -0.0658 -0.2393
 1426W        W 4191   8.810   0.120   6.492 -0.0152  0.0671  0.1418
 1427W        W 4192   4.939   0.083   5.818  0.2396 -0.0496 -0.1079
 1428W        W 4193   2.382   8.510   1.456  0.1120  0.2698  0.0772
 1429W        W 4194   6.741   6.474   6.512  0.0028 -0.0956 -0.3686
 1430W        W 4195   4.161   7.948   6.516  0.0882  0.2120  0.0770
 1431W        W 4196   6.924   5.687   7.101 -0.4802  0.0972 -0.1367
 1432W        W 4197   5.536   7.746   0.317 -0.0914 -0.2690  0.1244
 1433W        W 4198   8.892   8.135   0.233 -0.1958 -0.2283  0.2329
 1434W        W 4199   5.747   7.827   7.150 -0.0948  0.3064  0.0586
 1435W        W 4200   4.212   5.335   0.777  0.0909  0.2678 -0.0098
 1436W        W 4201   6.728   8.585   1.286  0.3048  0.3989 -0.0852
 1437W        W 4202   7.093   8.696   6.477 -0.2802 -0.3130  0.2808
 1438W        W 4203   2.365   4.924   0.075  0.1951  0.2462  0.0811
 1439W        W 4204   6.087   5.077   6.957 -0.0072  0.0867  0.2420
 1440W        W 4205   7.219   5.500   0.259  0.0410  0.1692  0.2154
 1441W        W 4206   5.554   1.116   0.004  0.0264 -0.0879 -0.1599
 1442W        W 4207   5.371   5.551   7.201  0.1153 -0.2574  0.0361
 1443W        W 4208   5.794   2.001   6.253 -0.0129  0.0313 -0.0422
 1444W        W 4209   0.177   8.750   0.032  0.0264 -0.0967  0.1165
 1445W        W 4210   5.852   7.287   1.029  0.3789 -0.1184  0.2026
 1446W        W 4211   8.508   8.668   6.837  0.1925 -0.2441 -0.3444
 1447W        W 4212   2.610   1.503   6.644 -0.1734  0.1594  0.0092
 1448W        W 4213   7.510   3.455   7.006  0.1646  0.1778  0.0973
 1449W        W 4214   5.908   2.245   6.749 -0.1740 -0.0151 -0.1930
 1450W        W 4215   4.605   5.066   7.255 -0.0504 -0.0517 -0.0117
 1451W        W 4216   7.063   3.059   6.873 -0.0759  0.0488  0.0307
 1452W        W 4217   5.381   0.064   2.001 -0.1638  0.2548  0.0299
 1453W        W 4218   4.827   3.663   6.020  0.4556 -0.1904 -0.0016
 1454W        W 4219   3.316   4.274   6.389  0.0057  0.0599  0.0483
 1455W        W 4220   4.920   3.769   7.179 -0.0172  0.1941 -0.0953
 1456W        W 4221   8.714   3.857   6.639  0.4149 -0.0710 -0.2056
 1457W        W 4222   4.405   0.032   7.169 -0.1143 -0.1206 -0.0157
 1458W        W 4223   3.195   7.761   0.578  0.2492 -0.1855 -0.3371
 1459W        W 4224   0.641   6.674   6.468  0.0922 -0.0361  0.0328
 1460W        W 4225   1.527   4.131   6.446 -0.2976 -0.4844 -0.3219
 1461W        W 4226   8.350   8.354   0.650 -0.2225  0.1278  0.1772
 1462W        W 4227   8.901   3.279   6.998  0.1297 -0.0190  0.1526
 1463W        W 4228   1.974   1.966   6.037  0.1911 -0.1770  0.1273
 1464W        W 4229   4.007   4.906   6.085 -0.1326 -0.4263 -0.1668
 1465W        W 4230   2.134   4.645   6.171  0.1427  0.0719  0.2961
 1466W        W 4231   5.868   4.546   0.912 -0.2438  0.1346  0.0220
 1467W        W 4232   6.718   1.386   0.301  0.3147  0.3712 -0.0352
 1468W        W 4233   5.491   2.681   1.923 -0.2526 -0.0363 -0.1348
 1469W        W 4234   2.955   3.697   5.494 -0.1558  0.1423 -0.0557
 1470W        W 4235   4.580   0.675   1.100  0.0156  0.1054  0.0624
 1471W        W 4236   2.192   2.512   6.415 -0.2011 -0.0038 -0.2179
 1472W        W 4237   8.235   1.817   0.347  0.0472 -0.1816 -0.0431
 1473W        W 4238   6.070   6.069   5.538 -0.2117 -0.0679 -0.0683
 1474W        W 4239   7.867   8.433   1.624  0.2213  0.1118  0.0157
 1475W        W 4240   1.426   3.056   6.146 -0.2300  0.1532  0.0613
 1476W        W 4241   3.029   7.301   0.753 -0.0152 -0.1061  0.3233
 1477W        W 4242   2.576   0.094   5.778  0.1568 -0.0167 -0.0979
 1478W        W 4243   8.946   2.443   1.336 -0.2141  0.2997  0.3447
 1479W        W 4244   2.352   4.649   0.918  0.0326  0.1958  0.0380
 1480W        W 4245   3.876   4.454   1.110 -0.0513  0.2734 -0.0190
 1481W        W 4246   8.741   1.299   0.781 -0.1185  0.0386  0.0064
 1482W        W 4247   8.435   3.647   0.164 -0.2502  0.0716 -0.0230
 1483W        W 4248   4.360   0.558   0.212 -0.0081  0.2639  0.1492
 1484W        W 4249   5.330   4.530   7.200  0.0155 -0.0652  0.1925
 1485W        W 4250   8.207   5.681   6.962 -0.2151  0.2492  0.2290
 1486W        W 4251   0.219   1.360   0.499 -0.2805  0.1951  0.3008
 1487W        W 4252   2.390   0.322   1.523  0.2573 -0.0035 -0.1864
 1488W        W 4253   8.959   7.198   6.224  0.0148 -0.1050  0.1632
 1489W        W 4254   3.515   6.582   0.081 -0.0547 -0.0314 -0.0039
 1490W        W 4255   6.143   7.955   6.641 -0.0552 -0.4798 -0.0950
 1491W        W 4256   3.930   7.108   1.205  0.0737  0.1979 -0.0964
 1492W        W 4257   1.920   8.347   5.995 -0.0960 -0.1143 -0.1275
 1493W        W 4258   8.582   7.476   6.960  0.3073 -0.0658 -0.1134
 1494W        W 4259   2.620   6.526   0.988  0.0252 -0.0535 -0.0835
 1495W        W 4260   6.291   8.402   1.205  0.3141  0.1681  0.0343
 1496W        W 4261   5.661   3.602   5.654 -0.2369  0.1504  0.1111
 1497W        W 4262   5.444   5.051   6.168 -0.1932  0.3409 -0.0335
 1498W        W 4263   2.821   0.642   5.599 -0.2281 -0.0715  0.0423
 1499W        W 4264   0.196   4.109   0.354  0.3205  0.0562  0.2200
 1500W        W 4265   3.188   6.204   0.279 -0.2624 -0.2336 -0.0316
 1501W        W 4266   7.709   7.112   1.840 -0.4651  0.1476 -0.0758
 1502W        W 4267   7.124   1.318   7.253  0.2063  0.1043  0.0158
 1503W        W 4268   0.454   1.563   0.087  0.2907 -0.3800  0.0687
 1504W        W 4269   7.431   1.697   5.518 -0.1315  0.0564  0.3090
 1505W        W 4270   4.046   1.547   0.862  0.0072  0.0350 -0.0105
 1506W        W 4271   7.928   3.779   0.381  0.0568  0.1382 -0.2086
 1507W        W 4272   0.515   3.094   0.286 -0.0443 -0.2234 -0.1754
 1508W        W 4273   4.624   3.408   0.768 -0.0836 -0.1778  0.3218
 1509W        W 4274   4.669   5.588   7.152 -0.3614  0.0554 -0.3520
 1510W        W 4275   5.185   7.395   7.135  0.0156 -0.2994 -0.2026
 1511W        W 4276   0.256   7.789   0.304 -0.0176 -0.0764 -0.3616
 1512W        W 4277   0.981   6.339   6.347  0.4869  0.3165 -0.0790
 1513W        W 4278   6.110   0.510   2.002  0.1752  0.1809 -0.2222
 1514W        W 4279   1.715   3.258   6.516 -0.1116  0.0575  0.0350
 1515W        W 4280   7.114   4.675   5.664 -0.1616 -0.1506 -0.0461
 1516W        W 4281   6.506   0.320   0.748  0.2706  0.0287  0.1738
 1517W        W 4282   2.066   3.886   7.149  0.0188  0.0980 -0.2535
 1518W        W 4283   3.167   1.010   4.847  0.0147  0.0793  0.1299
 1519W        W 4284   0.902   6.321   1.753 -0.1141  0.0644  0.0667
 1520W        W 4285   4.478   5.854   6.030 -0.1623  0.1429  0.1461
 1521W        W 4286   8.139   6.810   1.680  0.2079 -0.0559  0.2158
 1522W        W 4287   8.223   2.990   6.463  0.3690 -0.0432  0.0939
 1523W        W 4288   8.411   1.044   0.136  0.1883  0.2189 -0.1477
 1524W        W 4289   3.582   2.449   6.502 -0.2186  0.0857  0.1763
 1525W        W 4290   5.322   1.443   0.360  0.1099  0.3576 -0.1547
 1526W        W 4291   6.658   4.290   5.758 -0.0093  0.2218 -0.2803
 1527W        W 4292   5.772   1.483   5.316  0.2725 -0.1832  0.2675
 1528W        W 4293   4.213   6.578   1.179 -0.1707  0.0378  0.0013
 1529W        W 4294   6.601   2.145   6.206  0.3022 -0.0681  0.3043
 1530W        W 4295   0.332   4.575   0.292  0.2912  0.1538 -0.0981
 1531W        W 4296   1.202   3.566   7.271 -0.1340  0.0559 -0.0041
 1532W        W 4297   3.430   8.288   0.544  0.2422  0.3331 -0.2163
 1533W        W 4298   7.765   2.596   0.554 -0.0356  0.1542  0.0892
 1534W        W 4299   2.230   0.712   6.937  0.1997 -0.0593 -0.1483
 1535W        W 4300   7.627   3.291   5.683 -0.0153  0.2446  0.0419
 1536W        W 4301   6.510   4.712   5.911 -0.3056 -0.4039 -0.1830
 1537W        W 4302   2.399   3.428   5.930  0.1241  0.0592 -0.0016
 1538W        W 4303   6.089   3.047   2.015  0.1412 -0.1493  0.0014
 1539W        W 4304   7.404   7.422   0.438  0.2259  0.0631 -0.0094
 1540W        W 4305   7.766   2.879   6.656  0.0229 -0.1160  0.0824
 1541W        W 4306   4.479   1.296   1.012 -0.0076  0.1888  0.2339
 1542W        W 4307   0.453   2.597   1.224 -0.2207 -0.1975  0.1797
 1543W        W 4308   1.307   1.974   0.910 -0.0241 -0.1559  0.1641
 1544W        W 4309   4.101   1.232   5.888  0.2584  0.2128 -0.2698
 1545W        W 4310   3.070   4.461   6.792  0.0059 -0.1730 -0.0545
 1546W        W 4311   2.222   8.841   0.035  0.0069  0.0168 -0.0866
 1547W        W 4312   3.792   3.371   0.523 -0.0915  0.0930  0.0799
 1548W        W 4313   6.347   1.325   1.774 -0.0002  0.1379 -0.0329
 1549W        W 4314   4.997   7.062   6.713 -0.2504  0.0829  0.1103
 1550W        W 4315   4.409   3.859   7.244 -0.0191  0.0743 -0.2911
 1551W        W 4316   7.289   2.459   0.845  0.0164  0.1878  0.4167
 1552W        W 4317   0.899   8.007   0.767  0.0876  0.0653 -0.1512
 1553W        W 4318   4.565   1.704   0.712 -0.0967  0.2064 -0.2287
 1554W        W 4319   7.181   5.996   0.651  0.2845  0.0168 -0.1416
 1555W        W 4320   5.672   2.745   6.667 -0.0169 -0.1086 -0.0692
 1556W        W 4321   4.881   6.938   1.426 -0.0465 -0.0247  0.0664
 1557W        W 4322   4.095   5.851   1.105 -0.1037  0.2161  0.0053
 1558W        W 4323   1.217   8.383   0.154  0.1991 -0.2007  0.1606
 1559W        W 4324   3.560   1.326   0.642  0.0295  0.0908  0.1338
 1560W        W 4325   5.849   4.452   6.993  0.1941  0.1050  0.1107
 1561W        W 4326   2.938   3.496   1.587  0.1148  0.0686 -0.3015
 1562W        W 4327   7.550   6.912   0.363  0.0415 -0.0441  0.1207
 1563W        W 4328   7.328   6.985   0.794  0.2818  0.1503  0.0029
 1564W        W 4329   2.152   2.475   0.062 -0.2012  0.2474 -0.1442
 1565W        W 4330   6.452   1.821   0.140  0.1241 -0.4805 -0.0381
 1566W        W 4331   4.029   5.835   0.530  0.1477 -0.2690  0.0143
 1567W        W 4332   4.404   4.524   6.175  0.1652 -0.1008 -0.0831
 1568W        W 4333   3.581   2.336   0.804  0.0649 -0.4543  0.0624
 1569W        W 4334   1.511   1.199   0.105 -0.0560  0.2642 -0.1263
 1570W        W 4335   6.567   2.848   1.054 -0.2451 -0.1539 -0.1116
 1571W        W 4336   8.300   7.287   6.445 -0.4265  0.1276 -0.1962
 1572W        W 4337   4.849   3.200   0.274 -0.0374  0.0711  0.1842
 1573W        W 4338   8.016   2.721   0.933  0.0039 -0.0895 -0.0687
 1574W        W 4339   2.581   2.061   0.057  0.3715  0.0956  0.1543
 1575W        W 4340   3.309   8.878   0.616  0.0415  0.2591  0.0844
 1576W        W 4341   1.519   4.225   1.295  0.2959  0.0500  0.1484
 1577W        W 4342   7.232   6.892   7.258  0.0027 -0.2288  0.3118
 1578W        W 4343   8.655   6.527   6.831  0.0661 -0.1559  0.0845
 1579W        W 4344   5.301   6.299   6.982  0.2973 -0.0059 -0.2369
 1580W        W 4345   7.227   3.803   0.951  0.0567 -0.5911  0.1001
 1581W        W 4346   1.940   0.863   0.747 -0.0052  0.4411 -0.0424
 1582W        W 4347   8.027   2.405   6.502  0.1343  0.0231 -0.0347
 1583W        W 4348   3.510   5.287   0.610  0.1650 -0.0146 -0.2608
 1584W        W 4349   4.610   8.069   0.170  0.0156  0.1918  0.2200
 1585W        W 4350   1.700   6.156   0.137 -0.3360 -0.1949 -0.2411
 1586W        W 4351   8.827   8.395   7.135 -0.3143  0.1388 -0.0121
 1587W        W 4352   6.339   6.202   6.471 -0.2978  0.2195 -0.0727
 1588W        W 4353   4.074   4.770   1.859 -0.0206 -0.0022  0.0458
 1589W        W 4354   3.602   1.943   0.010  0.0188 -0.2236  0.3848
 1590W        W 4355   0.269   5.930   7.065 -0.1281  0.0162  0.0303
 1591W        W 4356   8.559   5.986   6.765 -0.1132 -0.0016  0.4617
 1592W        W 4357   1.770   5.734   7.088  0.0490  0.0291 -0.3387
 1593W        W 4358   2.313   7.532   1.090 -0.3288 -0.2012 -0.2389
 1594W        W 4359   7.442   1.709   0.872 -0.1392  0.1346 -0.1452
 1595W        W 4360   3.575   0.507   1.176  0.0941 -0.0966  0.0198
 1596W        W 4361   6.147   1.537   5.719 -0.0146  0.0299 -0.1787
 1597W        W 4362   2.132   1.027   5.778 -0.1729  0.1002 -0.0499
 1598W        W 4363   8.911   7.609   1.324 -0.3044 -0.0642 -0.1390
 1599W        W 4364   6.234   8.046   7.116 -0.2811  0.1437  0.0394
 1600W        W 4365   8.634   7.361   0.936  0.3388  0.3128 -0.1650
 1601W        W 4366   5.048   2.500   1.817  0.0220 -0.2235  0.1880
 1602W        W 4367   4.795   7.698   1.129 -0.3496  0.0314  0.0530
 1603W        W 4368   8.828   2.255   7.195  0.0005 -0.0869  0.3292
 1604W        W 4369   3.386   0.408   0.450  0.0159 -0.1502 -0.1279
 1605W        W 4370   4.587   8.865   0.795  0.0684 -0.2095  0.2114
 1606W        W 4371   2.131   1.283   1.084  0.2141 -0.3166  0.3930
 1607W        W 4372   7.794   1.190   0.518 -0.2918 -0.2887  0.0634
 1608W        W 4373   6.039   6.027   6.100 -0.0246  0.3407 -0.1907
 1609W        W 4374   6.150   6.746   0.169  0.3743 -0.1720 -0.1259
 1610W        W 4375   8.205   8.276   6.497  0.1845 -0.3308  0.3545
 1611W        W 4376   0.960   6.840   0.197  0.2997 -0.0455 -0.1160
 1612W        W 4377   4.686   4.779   1.477 -0.2688 -0.0448 -0.2701
 1613W        W 4378   3.473   8.495   6.553  0.3360 -0.1595 -0.1457
 1614W        W 4379   7.314   8.861   6.940 -0.2201 -0.0556  0.2521
 1615W        W 4380   6.823   4.553   7.055 -0.1120 -0.0025 -0.1857
 1616W        W 4381   1.489   0.896   0.511  0.3525 -0.0259 -0.0622
 1617W        W 4382   6.024   5.608   7.043  0.1292 -0.3556 -0.1907
 1618W        W 4383   7.263   5.396   6.915  0.2592 -0.0008 -0.0918
 1619W        W 4384   6.955   6.105   6.720  0.2723  0.0012  0.2808
 1620W        W 4385   6.449   0.774   0.922  0.1870 -0.2386  0.1947
 1621W        W 4386   1.162   2.856   0.758 -0.0112 -0.0273 -0.2991
 1622W        W 4387   6.407   3.477   6.385  0.2060  0.0419 -0.0933
 1623W        W 4388   0.560   6.113   2.042  0.0864  0.3448 -0.2659
 1624W        W 4389   8.573   6.223   1.964 -0.5179  0.0547 -0.1061
 1625W        W 4390   1.138   2.353   0.079  0.0779 -0.2599 -0.0044
 1626W        W 4391   6.064   0.533   0.515  0.0077 -0.3149  0.0538
 1627W        W 4392   6.738   5.257   6.300  0.0429 -0.1094  0.0040
 1628W        W 4393   3.592   2.118   1.307  0.2683 -0.1719 -0.0628
 1629W        W 4394   3.168   1.713   5.893  0.0222 -0.0213 -0.2667
 1630W        W 4395   7.999   3.680   5.456  0.1391 -0.0793 -0.0625
 1631W        W 4396   3.449   7.616   0.008  0.4950  0.2708 -0.1132
 1632W        W 4397   1.817   7.435   6.042 -0.0039 -0.0173 -0.0371
 1633W        W 4398   6.953   4.358   6.145 -0.0934  0.3170 -0.1252
 1634W        W 4399   5.477   3.236   0.675 -0.0099  0.0142  0.2122
 1635W        W 4400   5.608   1.827   6.776 -0.0080  0.1026 -0.0598
 1636W        W 4401   1.197   2.828   7.179 -0.2399  0.1660 -0.0257
 1637W        W 4402   8.826   5.801   1.941  0.0942  0.1883  0.1928
 1638W        W 4403   2.849   1.305   6.183 -0.1499  0.2818  0.0417
 1639W        W 4404   5.515   7.630   1.511  0.0634 -0.0697 -0.1679
 1640W        W 4405   7.787   6.770   0.899 -0.2890  0.1510 -0.3216
 1641W        W 4406   4.057   2.209   0.115 -0.3579 -0.4742  0.0155
 1642W        W 4407   5.127   7.475   6.255 -0.2810 -0.0603  0.2574
 1643W        W 4408   0.709   8.662   0.212  0.1706  0.1791 -0.2731
 1644W        W 4409   0.064   2.777   0.667 -0.4229 -0.0896  0.1310
 1645W        W 4410   7.670   4.655   1.196 -0.2069 -0.3152 -0.3452
 1646W        W 4411   3.334   6.765   0.680 -0.1332 -0.0963 -0.1972
 1647W        W 4412   8.848   2.822   6.401  0.0489  0.1881  0.2435
 1648W        W 4413   4.785   4.873   2.086 -0.2044 -0.1476  0.3206
 1649W        W 4414   0.135   4.472   5.207 -0.1826  0.0485 -0.1173
 1650W        W 4415   8.321   1.712   5.167  0.0119 -0.4285 -0.0760
 1651W        W 4416   2.134   3.674   5.490  0.1299 -0.2087 -0.4155
 1652W        W 4417   3.813   5.664   6.772  0.2452  0.5261  0.1325
 1653W        W 4418   4.862   1.543   1.294 -0.3437  0.0978 -0.0502
 1654W        W 4419   6.363   5.198   1.982  0.3199 -0.0919 -0.1454
 1655W        W 4420   0.359   2.085   7.242  0.0054  0.2312 -0.1381
 1656W        W 4421   5.485   1.931   1.220 -0.1761 -0.0725 -0.0306
 1657W        W 4422   3.514   3.664   0.218 -0.0112 -0.2307 -0.1255
 1658W        W 4423   7.408   0.657   1.703 -0.0890  0.0466  0.2147
 1659W        W 4424   1.651   2.655   7.195 -0.0019  0.4050 -0.0670
 1660W        W 4425   5.647   7.548   6.038  0.0416  0.0855 -0.1951
 1661W        W 4426   7.250   0.292   5.736 -0.0197 -0.0027 -0.3067
 1662W        W 4427   5.798   5.311   5.960  0.0047 -0.0205  0.3292
 1663W        W 4428   4.669   0.326   6.201 -0.4513 -0.4185  0.0703
 1664W        W 4429   6.594   4.929   0.073  0.0167 -0.1261  0.1752
 1665W        W 4430   8.968   6.625   7.185 -0.4101  0.1905 -0.3055
 1666W        W 4431   1.144   5.516   0.752  0.2136  0.0408 -0.0803
 1667W        W 4432   6.235   3.635   0.610 -0.0604 -0.0671  0.0742
 1668W        W 4433   2.223   1.224   7.231 -0.1556 -0.1374  0.0956
 1669W        W 4434   6.817   4.562   1.220  0.0661  0.3458 -0.1963
 1670W        W 4435   1.513   0.233   1.158 -0.1862 -0.2431  0.1565
 1671W        W 4436   4.544   1.278   0.427 -0.1931  0.0597 -0.0812
 1672W        W 4437   1.443   7.027   1.613 -0.2812  0.1438 -0.0545
 1673W        W 4438   0.791   0.593   6.298 -0.0431 -0.0516 -0.0695
 1674W        W 4439   5.494   3.346   7.110  0.1690  0.0279  0.1401
 1675W        W 4440   4.767   7.451   6.568 -0.0258 -0.0118 -0.0582
 1676W        W 4441   7.425   8.106   1.905  0.6227 -0.0488  0.1721
 1677W        W 4442   2.098   8.282   7.031 -0.1790  0.5915  0.1622
 1678W        W 4443   5.701   3.775   0.679 -0.0727 -0.1626  0.0628
 1679W        W 4444   8.342   4.602   6.051 -0.1097  0.0180 -0.2335
 1680W        W 4445   8.596   5.999   5.956  0.1312 -0.0986 -0.2216
 1681W        W 4446   0.723   1.360   0.524 -0.0221 -0.1709  0.1516
 1682W        W 4447   5.072   2.355   0.186 -0.1259  0.0432  0.1284
 1683W        W 4448   0.706   8.305   1.111  0.0398  0.4075  0.2524
 1684W        W 4449   3.262   0.290   6.456  0.1101 -0.0542  0.0062
 1685W        W 4450   8.848   3.873   7.133 -0.1250 -0.1696  0.1847
 1686W        W 4451   0.298   7.346   1.592  0.1238 -0.0597 -0.2497
 1687W        W 4452   6.156   2.704   6.715  0.0395 -0.0115  0.1322
 1688W        W 4453   0.151   4.126   6.228 -0.4039 -0.1322  0.1129
 1689W        W 4454   2.799   7.150   0.291  0.3911  0.0165  0.1229
 1690W        W 4455   7.079   5.527   1.209 -0.4260  0.1249  0.3301
 1691W        W 4456   5.577   4.595   6.160  0.1060  0.3521 -0.1060
 1692W        W 4457   2.951   4.012   6.653 -0.0030  0.2048  0.2602
 1693W        W 4458   0.842   5.064   6.982 -0.0943  0.2108  0.2129
 1694W        W 4459   2.216   1.343   1.756 -0.3899  0.0544  0.4164
 1695W        W 4460   5.334   5.717   2.189  0.0369 -0.2476  0.2393
 1696W        W 4461   1.355   5.477   6.238 -0.0736  0.3557  0.1872
 1697W        W 4462   5.824   6.322   0.371  0.0990  0.1108  0.1729
 1698W        W 4463   5.483   1.047   1.557  0.1854  0.1784  0.0299
 1699W        W 4464   4.859   8.482   6.710 -0.0123  0.0015 -0.0443
 1700W        W 4465   5.159   6.596   1.732 -0.1723 -0.1680  0.3282
 1701W        W 4466   2.065   4.638   0.449 -0.0793 -0.2541  0.0142
 1702W        W 4467   1.150   6.134   0.527  0.2707  0.0476 -0.1139
 1703W        W 4468   7.129   0.422   0.118  0.1770  0.0781  0.1218
 1704W        W 4469   6.760   7.212   0.823 -0.1073 -0.0736  0.1498
 1705W        W 4470   1.124   6.762   1.247  0.2409  0.0468 -0.1442
 1706W        W 4471   5.333   2.180   6.488 -0.0614 -0.1522 -0.1382
 1707W        W 4472   6.458   1.676   1.437 -0.1350  0.2889  0.0344
 1708W        W 4473   0.966   3.055   5.963  0.1295 -0.0121  0.3660
 1709W        W 4474   4.088   1.787   7.162 -0.0735  0.1409  0.1447
 1710W        W 4475   5.300   5.501   6.487 -0.1579  0.1115  0.2421
 1711W        W 4476   5.889   7.860   0.878  0.0782 -0.0937 -0.2262
 1712W        W 4477   8.553   2.961   5.670  0.1144  0.3404  0.2319
 1713W        W 4478   6.022   4.165   0.446  0.0699  0.0597 -0.1119
 1714W        W 4479   8.307   4.029   0.594 -0.0447  0.0282 -0.1748
 1715W        W 4480   6.493   4.065   0.461  0.0883  0.1609  0.3744
 1716W        W 4481   2.889   8.550   5.735  0.2476 -0.3974  0.0482
 1717W        W 4482   3.443   5.414   5.818  0.0890 -0.3629 -0.0056
 1718W        W 4483   3.493   7.199   0.957  0.1331  0.0623 -0.2889
 1719W        W 4484   8.711   4.410   6.419 -0.2435 -0.0477 -0.2744
 1720W        W 4485   5.774   4.852   5.126 -0.0162  0.1534  0.1687
 1721W        W 4486   4.558   5.578   1.649  0.0049  0.1458  0.0024
 1722W        W 4487   4.073   7.365   5.688  0.0375  0.1978 -0.0454
 1723W        W 4488   7.681   8.846   6.419  0.0786 -0.0431 -0.0143
 1724W        W 4489   3.090   6.531   6.532 -0.1511 -0.4031 -0.2957
 1725W        W 4490   7.071   7.305   1.181  0.0137 -0.3418  0.2555
 1726W        W 4491   3.927   3.965   0.891  0.2734 -0.1284 -0.1240
 1727W        W 4492   6.060   4.745   6.114 -0.0134  0.1084  0.1435
 1728W        W 4493   3.700   0.372   6.148 -0.2932  0.1136 -0.0315
 1729W        W 4494   3.571   3.080   0.175  0.0235 -0.0114  0.1731
 1730W        W 4495   4.819   5.908   0.564  0.2798 -0.2403 -0.1970
 1731W        W 4496   7.091   8.599   5.544  0.2842  0.0940 -0.1307
 1732W        W 4497   4.353   4.149   0.426 -0.1019  0.0158  0.1958
 1733W        W 4498   1.866   5.938   6.666 -0.3724 -0.0717  0.0395
 1734W        W 4499   6.409   3.240   5.763 -0.0254  0.0671 -0.3003
 1735W        W 4500   0.013   2.077   1.717  0.1306  0.3154  0.2479
 1736W        W 4501   3.204   3.731   6.274 -0.0116 -0.1226  0.0147
 1737W        W 4502   5.768   5.719   0.285 -0.0365 -0.1830  0.0561
 1738W        W 4503   6.231   5.206   6.120 -0.1286  0.1057 -0.0922
 1739W        W 4504   5.514   2.787   5.785 -0.0593 -0.1437  0.1217
 1740W        W 4505   1.001   1.612   2.238  0.1875  0.0496 -0.2147
 1741W        W 4506   4.432   3.395   6.972 -0.0048 -0.2928  0.2345
 1742W        W 4507   6.245   0.812   1.586 -0.0443 -0.2719  0.0648
 1743W        W 4508   7.814   1.303   1.064 -0.2083 -0.2735  0.0928
 1744W        W 4509   4.245   0.512   6.449  0.0231  0.0143 -0.1062
 1745W        W 4510   2.033   5.374   5.731 -0.0939  0.1032  0.0460
 1746W        W 4511   8.444   6.987   1.179  0.1893 -0.0064  0.2119
 1747W        W 4512   3.270   7.744   5.587  0.0658 -0.0423  0.1395
 1748W        W 4513   4.407   6.493   6.789  0.1377  0.3589  0.1182
 1749W        W 4514   0.462   5.513   6.752 -0.0695  0.0775 -0.2399
 1750W        W 4515   6.277   4.624   7.093 -0.0128  0.2046 -0.2106
 1751W        W 4516   5.959   3.094   7.040  0.3425 -0.1398  0.2443
 1752W        W 4517   0.828   1.549   6.889  0.0687 -0.0838 -0.3101
 1753W        W 4518   2.343   2.100   5.669  0.0867  0.1772 -0.1754
 1754W        W 4519   4.763   7.356   0.370  0.1759 -0.2249  0.0385
 1755W        W 4520   7.774   5.352   0.561  0.0225 -0.2152 -0.3282
 1756W        W 4521   6.900   8.145   0.401  0.0551 -0.2511 -0.3760
 1757W        W 4522   8.535   6.812   0.698 -0.0809  0.0541  0.1196
 1758W        W 4523   1.913   1.763   2.234 -0.1275  0.1760 -0.2858
 1759W        W 4524   4.396   2.047   6.060 -0.0900 -0.0257 -0.3719
 1760W        W 4525   6.585   5.778   6.700  0.3402 -0.1831 -0.0014
 1761W        W 4526   4.522   5.231   6.782 -0.1061  0.0667 -0.1039
 1762W        W 4527   3.180   4.152   5.545 -0.0557 -0.4362 -0.0902
 1763W        W 4528   5.874   2.256   0.086  0.0519  0.1755 -0.0082
 1764W        W 4529   7.361   7.900   0.367  0.0000 -0.0292 -0.2489
 1765W        W 4530   0.357   8.128   7.208 -0.0274  0.0681  0.0652
 1766W        W 4531   0.320   2.576   6.190  0.2244  0.0546 -0.0211
 1767W        W 4532   7.384   6.030   1.133 -0.1287  0.0368 -0.0153
 1768W        W 4533   8.914   3.002   1.063 -0.0004  0.2492 -0.0033
 1769W        W 4534   4.813   0.953   0.753  0.3209  0.0411 -0.0866
 1770W        W 4535   0.466   5.982   0.891  0.2136  0.2266 -0.1839
 1771W        W 4536   8.725   0.202   7.186  0.1328 -0.3662  0.2189
 1772W        W 4537   1.850   6.621   6.483 -0.1474 -0.1426  0.3104
 1773W        W 4538   7.116   2.771   1.830 -0.0862 -0.0192  0.2149
 1774W        W 4539   6.387   0.366   0.084 -0.2763  0.0982 -0.2977
 1775W        W 4540   3.633   1.114   6.815  0.2981  0.4260 -0.2385
 1776W        W 4541   0.959   0.071   6.786  0.0028  0.4367  0.1118
 1777W        W 4542   1.327   7.489   6.226  0.0884  0.3832  0.2836
 1778W        W 4543   3.407   8.538   7.046  0.1616 -0.2898  0.1727
 1779W        W 4544   3.076   5.066   5.716 -0.0936 -0.0833  0.0579
 1780W        W 4545   4.316   3.151   0.135 -0.1240 -0.2130 -0.3428
 1781W        W 4546   6.301   2.438   1.009 -0.0662 -0.0395  0.0125
 1782W        W 4547   4.065   3.725   6.706 -0.0198 -0.0122 -0.0422
 1783W        W 4548   3.047   7.777   6.901 -0.0820 -0.0506 -0.0784
 1784W        W 4549   7.858   4.554   6.094 -0.3759  0.0842 -0.0985
 1785W        W 4550   7.297   3.634   6.203  0.2031 -0.2835  0.0155
 1786W        W 4551   6.757   6.189   1.894  0.0177 -0.0698 -0.1034
 1787W        W 4552   7.614   5.897   0.131  0.0564 -0.1965  0.4077
 1788W        W 4553   6.062   5.831   6.586  0.0996  0.1214 -0.3006
 1789W        W 4554   3.880   4.039   0.362 -0.0425  0.0931  0.1717
 1790W        W 4555   2.349   2.243   1.469 -0.0825 -0.0837  0.1965
 1791W        W 4556   6.457   5.706   6.216  0.1693  0.0266 -0.2509
 1792W        W 4557   7.439   7.120   6.684 -0.0380  0.0466 -0.0345
 1793W        W 4558   3.109   7.245   1.256  0.4653  0.2286 -0.0188
 1794W        W 4559   6.081   2.919   1.150 -0.1595  0.1593  0.1075
 1795W        W 4560   0.869   7.313   7.212 -0.1104  0.0998  0.2682
 1796W        W 4561   7.347   7.104   2.199 -0.1319 -0.0319  0.2430
 1797W        W 4562   0.256   6.343   6.297  0.2365 -0.1478 -0.0062
 1798W        W 4563   0.008   7.709   0.806  0.1685 -0.1297 -0.3853
 1799W        W 4564   3.932   7.360   7.279  0.3463  0.1512  0.0931
 1800W        W 4565   7.059   4.425   1.679  0.0448  0.0636 -0.2265
 1801W        W 4566   4.924   4.148   6.868  0.1936 -0.2076 -0.2307
 1802W        W 4567   4.584   8.729   6.120 -0.0568 -0.1059  0.2263
 1803W        W 4568   7.654   7.335   0.880  0.1799  0.0489  0.0174
 1804W        W 4569   3.125   8.869   6.763 -0.3223  0.3388  0.1527
 1805W        W 4570   2.859   3.048   0.785 -0.0673  0.2220  0.0623
 1806W        W 4571   8.038   5.993   6.573  0.0233  0.0796  0.1609
 1807W        W 4572   2.820   6.332   0.569 -0.0858 -0.0707 -0.0081
 1808W        W 4573   8.025   5.438   6.582 -0.1373  0.2732  0.3414
 1809W        W 4574   3.422   4.117   0.322  0.0018 -0.0804  0.0742
 1810W        W 4575   1.602   2.695   1.572 -0.3273 -0.1228 -0.0396
 1811W        W 4576   2.696   2.974   1.815 -0.0084  0.0117 -0.2462
 1812W        W 4577   7.583   5.695   1.812  0.0599 -0.1275  0.1731
 1813W        W 4578   7.767   8.401   6.602 -0.2458 -0.0212  0.0238
 1814W        W 4579   8.010   8.786   6.780 -0.1445  0.2378 -0.0164
 1815W        W 4580   8.164   7.294   1.873  0.2471 -0.0776 -0.1836
 1816W        W 4581   2.718   3.943   1.329 -0.2667 -0.2558 -0.0578
 1817W        W 4582   2.610   0.416   6.961  0.1478  0.2862  0.0789
 1818W        W 4583   2.452   1.912   6.168 -0.0150 -0.0070 -0.0885
 1819W        W 4584   2.613   7.105   1.153 -0.1063 -0.1978  0.1469
 1820W        W 4585   4.976   4.201   1.655 -0.2330  0.1252 -0.2385
 1821W        W 4586   8.379   7.898   7.278 -0.0171 -0.0254 -0.0768
 1822W        W 4587   3.291   0.780   6.947  0.2418 -0.0285  0.1455
 1823W        W 4588   0.261   0.305   6.357 -0.3856 -0.2793  0.0228
 1824W        W 4589   8.586   6.877   6.333  0.0308  0.1819 -0.1057
 1825W        W 4590   4.456   8.175   6.900  0.0398 -0.1253 -0.2740
 1826W        W 4591   6.443   4.524   0.776  0.1897 -0.1811  0.0985
 1827W        W 4592   4.772   2.909   6.676 -0.0293 -0.0413 -0.0985
 1828W        W 4593   6.539   8.640   0.777  0.1401  0.2264 -0.3269
 1829W        W 4594   8.875   4.674   0.667  0.2321  0.0972 -0.0852
 1830W        W 4595   1.104   0.771   0.850  0.0718  0.0422 -0.1544
 1831W        W 4596   6.539   5.037   0.551  0.1085 -0.3478 -0.1082
 1832W        W 4597   0.095   7.716   6.009  0.0449  0.0237  0.3587
 1833W        W 4598   8.828   4.865   6.958  0.0339  0.2118  0.1533
 1834W        W 4599   0.389   0.017   0.465 -0.2112 -0.0317 -0.1259
 1835W        W 4600   8.587   8.255   2.060 -0.3059 -0.2936  0.1270
 1836W        W 4601   6.979   7.653   0.490 -0.2017  0.1860  0.0662
 1837W        W 4602   2.685   2.205   1.120  0.3596 -0.1055  0.1161
 1838W        W 4603   8.152   7.119   0.830  0.0537 -0.3515 -0.0672
 1839W        W 4604   1.795   4.022   0.870 -0.1236  0.0201 -0.2922
 1840W        W 4605   0.654   7.978   6.744 -0.0015 -0.2030 -0.2461
 1841W        W 4606   1.924   3.548   0.612 -0.1106  0.0121  0.0292
 1842W        W 4607   7.988   0.060   0.987  0.0867  0.1962 -0.1070
 1843W        W 4608   4.557   3.739   6.645 -0.0381 -0.1136 -0.1946
 1844W        W 4609   2.423   8.085   1.166  0.1425  0.3170  0.1041
 1845W        W 4610   3.383   6.941   6.615 -0.0584 -0.0115 -0.1536
 1846W        W 4611   7.518   4.802   0.668 -0.2647 -0.1727  0.0238
 1847W        W 4612   5.426   3.660   1.027 -0.1701  0.1144 -0.0586
 1848W        W 4613   1.903   5.914   0.704 -0.0953 -0.1421 -0.2662
 1849W        W 4614   5.419   4.346   1.746  0.0915  0.4587 -0.2691
 1850W        W 4615   5.308   4.385   6.691 -0.1623 -0.0239  0.2042
 1851W        W 4616   0.349   5.672   1.861 -0.0298 -0.4223  0.0635
 1852W        W 4617   8.925   5.608   6.825 -0.3640  0.3262  0.1073
 1853W        W 4618   5.887   8.507   0.354  0.2201 -0.0828 -0.1667
 1854W        W 4619   0.687   0.085   0.068  0.3380 -0.0979 -0.2608
 1855W        W 4620   6.970   0.459   0.905 -0.1190  0.1304 -0.3251
 1856W        W 4621   1.301   7.032   7.131  0.0825 -0.1781 -0.1645
 1857W        W 4622   5.733   6.362   5.884 -0.3631 -0.1691 -0.2639
 1858W        W 4623   5.038   6.075   1.390  0.1190 -0.4655  0.2121
 1859W        W 4624   5.454   3.835   1.552 -0.0846  0.0560  0.0462
 1860W        W 4625   8.105   3.542   4.962  0.0430 -0.2645 -0.2139
 1861W        W 4626   4.510   8.381   0.612 -0.0904 -0.2114 -0.1713
 1862W        W 4627   0.199   4.694   6.433  0.2307  0.1062 -0.2024
 1863W        W 4628   8.899   4.654   6.048  0.1551  0.1692 -0.0129
 1864W        W 4629   0.210   3.148   6.624  0.0570  0.1384 -0.0474
 1865W        W 4630   3.164   2.036   1.002 -0.0584 -0.2463 -0.0219
 1866W        W 4631   5.864   6.274   6.770  0.3390 -0.0060  0.1110
 1867W        W 4632   2.198   5.614   0.912 -0.3338  0.0051  0.0200
 1868W        W 4633   4.584   2.478   6.520  0.0919  0.1505  0.0879
 1869W        W 4634   3.434   8.078   6.815 -0.2570 -0.0236  0.1325
 1870W        W 4635   6.299   2.379   0.384 -0.0224 -0.3792  0.0912
 1871W        W 4636   7.498   7.608   6.829 -0.1306  0.0570  0.1791
 1872W        W 4637   4.235   7.423   6.770 -0.2253 -0.0008 -0.1364
 1873W        W 4638   5.040   6.262   6.553  0.2341 -0.4602  0.0514
 1874W        W 4639   0.711   4.285   0.997  0.0426  0.1685  0.0661
 1875W        W 4640   2.882   8.285   0.529 -0.1773  0.0488 -0.3113
 1876W        W 4641   3.640   1.575   7.015  0.2955  0.2034  0.3252
 1877W        W 4642   8.817   2.540   0.331  0.0150  0.5201 -0.1952
 1878W        W 4643   0.575   6.987   6.005 -0.1434  0.0521  0.3143
 1879W        W 4644   8.765   8.519   1.348 -0.0260 -0.2491 -0.0536
 1880W        W 4645   5.349   8.758   0.283 -0.3180 -0.4242 -0.3119
 1881W        W 4646   3.442   7.332   0.455 -0.1081  0.4009  0.3333
 1882W        W 4647   6.690   8.249   6.531 -0.1767  0.1187 -0.4281
 1883W        W 4648   5.627   4.030   6.000  0.0750 -0.1401  0.1690
 1884W        W 4649   2.541   8.204   6.619  0.0734 -0.2536 -0.0615
 1885W        W 4650   5.485   6.159   6.381 -0.1091  0.2016  0.0395
 1886W        W 4651   7.756   1.972   5.738 -0.1988 -0.2813 -0.3075
 1887W        W 4652   6.398   7.212   7.103 -0.1694  0.3487 -0.1368
 1888W        W 4653   6.075   0.357   1.049  0.0106  0.3401 -0.0071
 1889W        W 4654   2.477   8.269   6.120 -0.3104 -0.2011  0.0096
 1890W        W 4655   3.178   1.433   0.309  0.1534 -0.2082  0.1158
 1891W        W 4656   8.885   0.693   7.276 -0.0504 -0.0889  0.0050
 1892W        W 4657   8.101   5.286   1.852 -0.2322 -0.1172  0.0270
 1893W        W 4658   1.760   0.625   5.720  0.1044 -0.0821 -0.2103
 1894W        W 4659   6.799   0.015   0.324 -0.1537  0.2488 -0.0032
 1895W        W 4660   8.438   2.449   5.674  0.3023 -0.0569 -0.2724
 1896W        W 4661   4.572   3.932   1.483 -0.0034  0.3740 -0.0876
 1897W        W 4662   0.043   8.901   6.849 -0.0055 -0.1890 -0.1054
 1898W        W 4663   6.075   5.850   1.516 -0.1607  0.2740  0.0298
 1899W        W 4664   1.616   8.442   7.023  0.0000  0.0321  0.2758
 1900W        W 4665   1.264   5.432   1.789  0.1534  0.1263  0.1045
 1901W        W 4666   0.414   3.092   0.935  0.0016  0.0680  0.0091
 1902W        W 4667   2.941   5.235   0.939 -0.0796  0.3855 -0.2836
 1903W        W 4668   7.277   4.101   6.435 -0.0893  0.3673 -0.1234
 1904W        W 4669   5.288   2.726   0.799 -0.1081  0.0922  0.1355
 1905W        W 4670   1.421   2.370   6.895  0.3722  0.2001  0.0839
 1906W        W 4671   1.125   4.950   6.592 -0.1958  0.1051  0.1419
 1907W        W 4672   5.993   7.980   0.375  0.1178  0.0066 -0.0562
 1908W        W 4673   3.839   6.709   1.543  0.0408 -0.0165 -0.1124
 1909W        W 4674   1.669   5.095   6.398  0.0021 -0.1013  0.2176
 1910W        W 4675   6.066   1.071   6.516 -0.3563  0.0400 -0.0165
 1911W        W 4676   7.829   6.758   7.206 -0.1962  0.3867 -0.1501
 1912W        W 4677   1.704   3.141   7.019 -0.0227 -0.0992  0.4806
 1913W        W 4678   5.710   4.695   1.926  0.3060 -0.4444 -0.0046
 1914W        W 4679   7.876   6.344   6.280 -0.3464  0.1872  0.1200
 1915W        W 4680   7.793   5.740   6.163  0.2381 -0.2340  0.3415
 1916W        W 4681   5.597   6.376   0.873  0.0402 -0.2294 -0.2528
 1917W        W 4682   8.972   2.956   0.177 -0.0440 -0.0298  0.1064
 1918W        W 4683   5.300   4.009   5.287  0.0576 -0.1016  0.0715
 1919W        W 4684   3.639   5.809   0.835 -0.1494 -0.3009 -0.0562
 1920W        W 4685   5.622   4.869   5.736 -0.1269 -0.0283  0.1440
 1921W        W 4686   3.480   4.049   5.929 -0.1416  0.1228 -0.1726
 1922W        W 4687   5.000   3.419   2.390  0.2235  0.0323 -0.4679
 1923W        W 4688   0.358   8.439   1.622 -0.2163 -0.0625  0.0080
 1924W        W 4689   3.361   8.757   5.681 -0.1239  0.0499 -0.0135
 1925W        W 4690   7.544   8.440   0.430 -0.0217  0.0280  0.0887
 1926W        W 4691   2.243   8.283   0.204  0.1937  0.2935 -0.1575
 1927W        W 4692   1.007   8.873   5.904 -0.0006  0.3240 -0.0649
 1928W        W 4693   5.966   3.615   1.274 -0.0330  0.1276  0.0806
 1929W        W 4694   5.760   4.025   2.048 -0.2061  0.0654 -0.1632
 1930W        W 4695   3.355   4.677   7.187  0.0421  0.1017  0.3952
 1931W        W 4696   8.867   0.850   5.948 -0.2140  0.0709 -0.1145
 1932W        W 4697   3.524   1.864   6.273  0.0487  0.0965 -0.0727
 1933W        W 4698   8.439   3.631   0.917  0.1788  0.0817 -0.3360
 1934W        W 4699   2.116   1.909   0.145 -0.2369  0.0173 -0.0687
 1935W        W 4700   2.497   0.959   1.870  0.2003  0.1214 -0.1471
 1936W        W 4701   5.597   4.973   0.877 -0.0224 -0.0736 -0.0336
 1937W        W 4702   0.300   2.318   0.617 -0.2164  0.0340 -0.3172
 1938W        W 4703   6.576   6.035   7.219 -0.3640  0.1077 -0.0249
 1939W        W 4704   8.212   5.696   5.843  0.3413  0.2355  0.0295
 1940W        W 4705   2.737   5.928   7.094  0.0628  0.3731  0.2389
 1941W        W 4706   7.066   8.534   0.597 -0.0981 -0.0960  0.1738
 1942W        W 4707   8.890   8.400   0.792 -0.0228 -0.0010  0.1767
 1943W        W 4708   6.101   6.743   1.920 -0.0459 -0.0805  0.1521
 1944W        W 4709   6.840   6.866   6.244 -0.0080  0.1925 -0.0015
 1945W        W 4710   8.978   4.442   7.230 -0.0397 -0.0515 -0.1154
 1946W        W 4711   7.022   3.913   0.396  0.0693 -0.0837  0.0729
 1947W        W 4712   7.436   3.997   6.923  0.0671 -0.0244 -0.0030
 1948W        W 4713   7.328   5.137   5.398  0.1005  0.0950 -0.0864
 1949W        W 4714   0.817   8.831   0.888 -0.2026 -0.5102 -0.2019
 1950W        W 4715   3.738   5.155   1.660 -0.0800  0.0838  0.1563
 1951W        W 4716   0.860   8.222   1.626  0.0114 -0.1925  0.2654
 1952W        W 4717   8.493   5.135   0.015  0.3358 -0.0567  0.1531
 1953W        W 4718   4.901   7.974   1.943 -0.1686  0.0115 -0.0405
 1954W        W 4719   4.817   5.862   5.666  0.4829 -0.4349 -0.1372
 1955W        W 4720   0.031   0.443   6.838  0.1614  0.1509  0.2474
 1956W        W 4721   7.289   4.462   0.928  0.0423 -0.1770 -0.1216
 1957W        W 4722   8.926   1.242   1.703 -0.1276 -0.2013  0.0397
 1958W        W 4723   6.614   7.509   6.000 -0.1570 -0.1563  0.0229
 1959W        W 4724   4.712   3.388   1.442  0.0805  0.1567  0.0425
 1960W        W 4725   6.379   7.080   6.102  0.3135 -0.0424  0.4507
 1961W        W 4726   0.919   5.276   1.339  0.0136  0.1985  0.1274
 1962W        W 4727   7.657   2.465   5.891  0.1850  0.2772 -0.3272
 1963W        W 4728   5.824   4.824   7.281  0.0158  0.2836 -0.0624
 1964W        W 4729   6.766   3.653   0.787  0.2434  0.1265  0.0813
 1965W        W 4730   4.317   6.987   1.571 -0.0304  0.0339 -0.0411
 1966W        W 4731   0.312   4.644   6.904  0.0177  0.0428 -0.1851
 1967W        W 4732   5.651   2.658   1.142  0.2495  0.2489 -0.0863
 1968W        W 4733   2.087   0.087   5.813  0.1382  0.2677 -0.1209
 1969W        W 4734   5.947   8.803   0.774  0.1119 -0.2584 -0.0147
 1970W        W 4735   1.132   3.229   0.395  0.0766 -0.2387  0.0667
 1971W        W 4736   6.895   7.415   6.392 -0.1331 -0.0279 -0.0396
 1972W        W 4737   8.935   3.614   5.174  0.2237 -0.0702 -0.2457
 1973W        W 4738   8.733   7.634   0.193 -0.1425  0.2833 -0.1460
 1974W        W 4739   2.664   8.779   5.360  0.5234  0.0357  0.1921
 1975W        W 4740   7.552   0.412   0.844  0.3348 -0.2418  0.1530
 1976W        W 4741   7.258   1.843   5.983  0.0820 -0.3440  0.1169
 1977W        W 4742   0.129   8.828   1.423  0.0545 -0.1904  0.3414
 1978W        W 4743   3.933   0.747   7.092  0.0047 -0.1191 -0.0680
 1979W        W 4744   5.190   4.155   0.859 -0.2523 -0.3476 -0.1322
 1980W        W 4745   5.392   0.391   5.762 -0.1900 -0.1347  0.1458
 1981W        W 4746   5.571   6.185   5.482 -0.1086 -0.1156 -0.1180
 1982W        W 4747   3.266   0.948   0.373 -0.1443  0.0801 -0.4871
 1983W        W 4748   2.397   4.218   6.051  0.0167 -0.2976 -0.1776
 1984W        W 4749   6.773   0.606   0.375 -0.0593  0.1808 -0.2085
 1985W        W 4750   8.915   1.445   5.874  0.0979  0.0513 -0.2092
 1986W        W 4751   2.766   3.046   7.052 -0.2924  0.4715  0.1621
 1987W        W 4752   6.982   7.846   6.703  0.2988  0.1672  0.0475
 1988W        W 4753   2.843   0.369   6.135  0.3083  0.1047  0.0379
 1989W        W 4754   3.495   1.930   5.053 -0.1473  0.0425  0.0423
 1990W        W 4755   8.191   3.004   6.948 -0.0890 -0.0454  0.0679
 1991W        W 4756   7.002   3.401   7.209 -0.0656 -0.1852  0.1792
 1992W        W 4757   7.748   0.970   5.867  0.0128  0.0175 -0.0105
 1993W        W 4758   4.082   4.817   0.098 -0.0358  0.1603 -0.1351
 1994W        W 4759   5.399   1.983   0.178 -0.1625 -0.0059  0.3941
 1995W        W 4760   8.175   1.881   1.545  0.0147  0.0728  0.2404
 1996W        W 4761   5.432   8.234   0.099 -0.3292 -0.1683 -0.0843
 1997W        W 4762   3.944   7.298   0.680 -0.1479 -0.0795 -0.0220
 1998W        W 4763   2.991   2.282   0.594 -0.2899 -0.2585  0.0950
 1999W        W 4764   1.068   8.483   6.351  0.1877 -0.3690  0.0568
 2000W        W 4765   5.688   4.146   1.217 -0.0812  0.1159 -0.1891
 2001W        W 4766   0.890   2.783   0.273 -0.1248  0.1419 -0.3416
 2002W        W 4767   6.808   2.460   1.234 -0.0535 -0.0035  0.0242
 2003W        W 4768   4.899   4.766   0.217  0.2919  0.0419  0.1029
 2004W        W 4769   6.388   4.268   6.224  0.1561 -0.1336 -0.1749
 2005W        W 4770   8.022   7.752   6.956  0.1035  0.2218 -0.2461
 2006W        W 4771   6.652   1.590   7.052  0.1753 -0.1283  0.1097
 2007W        W 4772   1.879   8.768   6.768  0.1556 -0.3178 -0.0214
 2008W        W 4773   1.606   5.483   6.682 -0.0600 -0.0691 -0.0523
 2009W        W 4774   4.400   7.966   2.162  0.0612  0.3025  0.3209
 2010W        W 4775   4.618   2.005   5.578  0.1666  0.2196 -0.2698
 2011W        W 4776   2.837   8.538   6.421 -0.0380  0.2570 -0.4471
 2012W        W 4777   5.171   4.070   6.175  0.1432  0.2706 -0.1669
 2013W        W 4778   3.700   7.363   1.607  0.2579  0.1227 -0.0428
 2014W        W 4779   4.194   8.418   7.270  0.1622  0.2286  0.0284
 2015W        W 4780   3.107   3.928   7.158  0.3191 -0.2012  0.3073
 2016W        W 4781   5.023   3.860   1.267 -0.1648 -0.0806  0.1597
 2017W        W 4782   8.212   4.408   6.506  0.1730  0.1895  0.0002
 2018W        W 4783   8.702   4.969   6.478 -0.2384 -0.1461  0.0240
 2019W        W 4784   0.606   6.438   5.935  0.0049  0.3027 -0.0370
 2020W        W 4785   6.522   5.022   1.497 -0.0084  0.2963  0.0242
 2021W        W 4786   4.585   7.230   7.155  0.2420  0.0585 -0.2888
 2022W        W 4787   2.933   3.009   1.273  0.0413  0.0198  0.2506
 2023W        W 4788   3.284   8.712   1.591 -0.0598  0.2318  0.3364
 2024W        W 4789   2.392   4.469   6.619  0.2433  0.0206 -0.1043
 2025W        W 4790   2.089   7.629   0.697  0.2738  0.2169  0.1630
 2026W        W 4791   1.248   7.440   0.120 -0.1425  0.1303  0.0881
 2027W        W 4792   0.688   1.524   5.580 -0.0375  0.0828 -0.1859
 2028W        W 4793   8.506   0.350   1.386  0.1205 -0.1140  0.3204
 2029W        W 4794   3.814   6.228   0.881 -0.0840  0.1943 -0.1422
 2030W        W 4795   0.552   8.173   2.004 -0.0498  0.1652 -0.0884
 2031W        W 4796   0.300   8.476   0.455  0.4009 -0.1958  0.2440
 2032W        W 4797   0.137   2.164   6.643 -0.1267 -0.2218  0.0761
 2033W        W 4798   3.937   0.217   0.135  0.1047  0.0128  0.2775
 2034W        W 4799   4.803   4.362   1.194 -0.0510  0.0522  0.0008
 2035W        W 4800   7.972   4.361   6.979  0.1247 -0.0710  0.0457
 2036W        W 4801   2.348   5.564   7.281  0.3304 -0.3786  0.0953
 2037W        W 4802   7.460   7.719   5.458  0.0866 -0.0291  0.2088
 2038W        W 4803   6.742   5.452   0.258  0.0053  0.1844 -0.2554
 2039W        W 4804   6.856   0.115   6.622 -0.1465 -0.1968  0.1570
 2040W        W 4805   8.405   0.158   6.070 -0.1695 -0.2003  0.1479
 2041W        W 4806   4.591   2.169   0.388 -0.0240 -0.0639  0.1341
 2042W        W 4807   4.620   3.229   5.877 -0.2492  0.0130 -0.1608
 2043W        W 4808   0.942   2.785   5.542  0.1514 -0.1855  0.0299
 2044W        W 4809   1.734   0.223   6.626 -0.1122 -0.0529 -0.0190
 2045W        W 4810   7.320   6.469   0.337 -0.1714 -0.1562  0.1718
 2046W        W 4811   8.411   3.471   6.910  0.2398 -0.1151  0.1101
 2047W        W 4812   2.508   5.030   0.590 -0.0703 -0.0058 -0.0177
 2048W        W 4813   8.333   8.045   2.421  0.0827  0.3135  0.0042
 2049W        W 4814   3.101   8.577   0.186 -0.0483  0.3045 -0.0977
 2050W        W 4815   4.314   4.001   6.318 -0.0131  0.0694 -0.0640
 2051W        W 4816   6.508   7.765   6.405 -0.0426  0.1042  0.1213
 2052W        W 4817   1.571   7.519   7.075 -0.2610  0.2354  0.0875
 2053W        W 4818   3.618   0.543   5.667 -0.1580  0.2422 -0.2770
 2054W        W 4819   5.082   1.026   7.148  0.1661  0.1408  0.1014
 2055W        W 4820   2.994   1.676   0.715 -0.1399  0.1416  0.3115
 2056W        W 4821   5.092   2.042   1.590 -0.1065 -0.1177  0.0024
 2057W        W 4822   5.095   1.319   1.660  0.2260  0.1166 -0.1814
 2058W        W 4823   8.980   7.662   1.831 -0.0657  0.0525 -0.0314
 2059W        W 4824   6.477   7.245   0.358 -0.0902 -0.0463 -0.0293
 2060W        W 4825   7.638   5.920   5.729  0.0907 -0.2203  0.3252
 2061W        W 4826   6.230   7.664   1.281  0.1074 -0.1463 -0.2760
 2062W        W 4827   8.501   2.065   1.200 -0.3126 -0.1428  0.1397
 2063W        W 4828   1.135   3.377   0.990 -0.0435 -0.3472  0.1763
 2064W        W 4829   6.802   2.690   5.629 -0.0668 -0.2252  0.1249
 2065W        W 4830   4.299   8.863   2.004  0.0479 -0.0218 -0.4053
 2066W        W 4831   0.405   3.903   0.758  0.3623 -0.2496 -0.0214
 2067W        W 4832   5.693   5.971   1.214  0.1434 -0.2282  0.0500
 2068W        W 4833   0.567   0.884   0.689 -0.1294 -0.4403  0.0109
 2069W        W 4834   8.593   2.021   5.935  0.0286  0.4270  0.2941
 2070W        W 4835   5.500   2.119   5.902  0.1802  0.3349  0.0239
 2071W        W 4836   2.019   3.215   6.101  0.0961 -0.0897  0.2660
 2072W        W 4837   7.378   7.101   5.610  0.0850  0.3159  0.1651
 2073W        W 4838   8.740   0.754   6.453 -0.0549 -0.3330 -0.1158
 2074W        W 4839   7.519   3.370   0.172  0.0553  0.0307 -0.3039
 2075W        W 4840   1.090   2.725   1.487  0.2778 -0.3101  0.1580
 2076W        W 4841   4.591   7.816   6.256  0.1766  0.2727  0.1563
 2077W        W 4842   7.343   7.624   6.276  0.2041 -0.2823  0.2921
 2078W        W 4843   1.522   3.508   5.920  0.2408 -0.1615  0.0252
 2079W        W 4844   2.968   4.130   5.969  0.0950  0.0262  0.0598
 2080W        W 4845   8.533   1.797   0.749  0.2112  0.1333 -0.1816
 2081W        W 4846   4.324   7.833   1.126  0.2209  0.1129 -0.1373
 2082W        W 4847   2.530   5.245   5.906  0.1388  0.2018  0.0301
 2083W        W 4848   3.298   8.118   1.373 -0.0153 -0.3035 -0.3124
 2084W        W 4849   0.131   1.072   0.933 -0.1096 -0.1964 -0.4738
 2085W        W 4850   5.008   1.876   0.504  0.0721 -0.2565  0.1980
 2086W        W 4851   1.262   3.658   0.612 -0.0918 -0.2331  0.0090
 2087W        W 4852   7.530   2.561   6.351  0.1274 -0.1960 -0.3879
 2088W        W 4853   4.013   4.225   5.995 -0.1230  0.1719 -0.1946
 2089W        W 4854   2.167   5.152   6.192  0.0031  0.0494 -0.4415
 2090W        W 4855   2.329   6.234   1.818  0.0810  0.1351 -0.1225
 2091W        W 4856   8.218   1.992   5.581 -0.3139 -0.2259  0.2184
 2092W        W 4857   2.846   5.495   1.991  0.2707  0.1506 -0.0771
 2093W        W 4858   4.951   1.427   0.744  0.1153 -0.1466 -0.0045
 2094W        W 4859   4.061   6.160   6.762  0.0897  0.0656  0.2326
 2095W        W 4860   7.255   8.810   0.142  0.0625  0.3444 -0.0618
 2096W        W 4861   6.349   8.878   0.379  0.0635  0.0427 -0.0709
 2097W        W 4862   0.136   1.244   6.349  0.1207  0.2745  0.1051
 2098W        W 4863   2.441   6.013   0.780  0.2300 -0.2517 -0.2324
 2099W        W 4864   3.959   3.175   6.953 -0.2137  0.1136 -0.0936
 2100W        W 4865   8.417   4.024   6.164 -0.3018  0.1894  0.1781
 2101W        W 4866   1.389   0.241   1.681 -0.1891 -0.0337  0.2847
 2102W        W 4867   2.747   3.472   1.127  0.1478  0.0113 -0.2489
 2103W        W 4868   7.096   2.070   1.061 -0.1554  0.3835 -0.0838
 2104W        W 4869   2.801   4.387   6.364  0.0133 -0.1927 -0.0169
 2105W        W 4870   3.646   5.479   7.225 -0.1476  0.1855  0.0098
 2106W        W 4871   8.323   2.709   5.273 -0.3022  0.2463 -0.2604
 2107W        W 4872   6.324   8.591   7.170 -0.2195  0.0142 -0.0847
 2108W        W 4873   7.479   7.013   1.288 -0.2706  0.3877  0.0970
 2109W        W 4874   4.073   5.794   7.163  0.3707 -0.4334  0.1482
 2110W        W 4875   3.973   3.093   6.129  0.0401 -0.2583 -0.0365
 2111W        W 4876   2.389   2.190   6.877  0.0203  0.0871  0.1144
 2112W        W 4877   2.312   1.660   1.375 -0.1744  0.0529  0.1109
 2113W        W 4878   1.303   1.478   6.958 -0.2668 -0.0555 -0.4883
 2114W        W 4879   0.562   5.968   1.457 -0.2810  0.4172  0.0719
 2115W        W 4880   1.906   3.510   1.136  0.1628  0.0671  0.0779
 2116W        W 4881   0.332   2.632   0.213  0.1723 -0.0507  0.0626
 2117W        W 4882   3.341   8.978   0.029  0.1978  0.1087 -0.0433
 2118W        W 4883   8.552   1.216   6.191  0.4383 -0.4124  0.1711
 2119W        W 4884   0.433   7.638   7.096 -0.0471 -0.1367  0.3080
 2120W        W 4885   4.494   0.909   7.139  0.0400  0.1014 -0.2359
 2121W        W 4886   1.425   4.407   0.025 -0.0246  0.2290 -0.0512
 2122W        W 4887   3.107   1.215   5.734 -0.1886 -0.1872 -0.1035
 2123W        W 4888   6.776   6.413   5.877  0.1736 -0.0099  0.0255
 2124W        W 4889   1.569   8.417   6.376 -0.0310 -0.1777  0.1793
 2125W        W 4890   2.536   5.187   6.976 -0.1119 -0.1555 -0.0670
 2126W        W 4891   3.533   5.073   6.202 -0.1684 -0.1143  0.0455
 2127W        W 4892   6.195   3.242   1.546 -0.3257  0.1657 -0.0133
 2128W        W 4893   2.501   2.942   6.186 -0.2029 -0.1369 -0.1857
 2129W        W 4894   0.672   5.137   0.871  0.0429  0.3434 -0.2324
 2130W        W 4895   8.639   4.443   1.160 -0.2644  0.2030 -0.0164
 2131W        W 4896   0.609   1.843   0.476 -0.1839 -0.0407 -0.0997
 2132W        W 4897   5.702   7.342   7.288  0.1534  0.1751  0.0265
 2133W        W 4898   5.006   5.236   6.946 -0.1099 -0.1907 -0.1817
 2134W        W 4899   8.831   7.012   6.750 -0.3753  0.0989 -0.0420
 2135W        W 4900   1.418   1.758   6.304 -0.0361 -0.1454 -0.1458
 2136W        W 4901   0.563   5.513   0.546 -0.0458  0.1256 -0.1478
 2137W        W 4902   6.913   6.388   1.482 -0.1716 -0.0155  0.0232
 2138W        W 4903   5.400   3.569   2.019  0.2046 -0.1484  0.0195
 2139W        W 4904   6.084   2.364   6.300 -0.0535 -0.1740  0.1804
 2140W        W 4905   6.655   2.754   0.258 -0.0118 -0.2475  0.2898
 2141W        W 4906   1.350   2.287   1.308  0.3498 -0.1654  0.2212
 2142W        W 4907   6.637   7.988   1.414 -0.0156  0.0734  0.1274
 2143W        W 4908   6.431   5.206   5.651  0.3133 -0.0510  0.2737
 2144W        W 4909   2.045   3.092   0.689  0.0784 -0.0518 -0.1308
 2145W        W 4910   5.843   2.814   5.417 -0.0400 -0.0757 -0.0578
 2146W        W 4911   3.008   3.565   0.751  0.2767  0.0138 -0.1046
 2147W        W 4912   8.939   1.035   6.897 -0.0205  0.0080  0.0985
 2148W        W 4913   8.038   1.868   0.979 -0.0095 -0.2876 -0.0528
 2149W        W 4914   7.901   4.401   0.786  0.2866  0.0194 -0.1262
 2150W        W 4915   5.596   7.845   6.528 -0.0957  0.1755  0.1690
 2151W        W 4916   2.722   3.227   0.304  0.2830  0.0319  0.1252
 2152W        W 4917   2.267   8.538   0.628 -0.2882  0.0051  0.0688
 2153W        W 4918   4.257   2.065   6.583 -0.0115  0.0378 -0.3643
 2154W        W 4919   0.416   7.033   0.660  0.1646  0.0738 -0.1255
 2155W        W 4920   3.322   1.282   6.199  0.1469 -0.3328 -0.0557
 2156W        W 4921   3.275   4.987   1.350  0.0659  0.1207 -0.1116
 2157W        W 4922   1.687   7.088   6.821 -0.1798  0.0351  0.0094
 2158W        W 4923   3.683   8.132   6.326 -0.2125  0.3406  0.1268
 2159W        W 4924   1.467   5.488   1.290 -0.0999 -0.3399 -0.2409
 2160W        W 4925   3.218   0.936   1.332 -0.1554 -0.1925  0.0479
 2161W        W 4926   8.101   6.255   5.857 -0.0131  0.3668 -0.0500
 2162W        W 4927   2.219   6.779   0.875 -0.2559 -0.1871  0.0114
 2163W        W 4928   7.764   2.440   6.929 -0.0250 -0.1277 -0.2791
 2164W        W 4929   6.905   5.108   5.821 -0.1923  0.1225 -0.2062
 2165W        W 4930   2.825   6.913   2.226 -0.2707  0.0630  0.0890
 2166W        W 4931   0.014   5.694   1.477 -0.1847  0.1693 -0.0774
 2167W        W 4932   5.203   3.274   5.814  0.0256  0.1558 -0.4193
 2168W        W 4933   4.555   2.695   0.280  0.0869  0.0022 -0.0150
 2169W        W 4934   3.232   3.205   0.493  0.3327  0.0545  0.4562
 2170W        W 4935   3.331   4.717   0.430 -0.0354 -0.1106 -0.1972
 2171W        W 4936   2.733   8.062   0.046 -0.1076 -0.1234 -0.0506
 2172W        W 4937   4.296   5.679   6.696  0.0984 -0.1932  0.1372
 2173W        W 4938   0.603   6.706   2.313  0.1261 -0.0105 -0.0894
 2174W        W 4939   0.807   3.828   7.043  0.0947 -0.2216 -0.0852
 2175W        W 4940   4.246   3.578   0.444 -0.2125  0.0783  0.1010
 2176W        W 4941   6.575   5.475   1.230 -0.1903 -0.2092  0.2060
 2177W        W 4942   8.752   8.586   6.438 -0.0997  0.0338  0.3600
 2178W        W 4943   5.250   1.662   7.095 -0.1434  0.0662 -0.2542
 2179W        W 4944   5.267   2.855   1.404  0.0258 -0.1643 -0.1071
 2180W        W 4945   5.572   1.537   1.572  0.0022  0.1169 -0.2436
 2181W        W 4946   8.059   2.764   5.851 -0.1182  0.1420 -0.2063
 2182W        W 4947   4.957   4.344   5.442  0.2187  0.0674  0.0949
 2183W        W 4948   1.841   2.324   1.780 -0.1093  0.0268  0.2009
 2184W        W 4949   7.103   3.392   0.441  0.1959  0.0390 -0.1741
 2185W        W 4950   5.499   3.599   6.172  0.0862 -0.0446 -0.0448
 2186W        W 4951   8.815   6.763   5.357  0.0633  0.3422  0.1978
 2187W        W 4952   0.260   0.283   7.262  0.1457 -0.1413  0.1244
 2188W        W 4953   3.038   4.931   6.683 -0.1293  0.2591  0.0463
 2189W        W 4954   2.323   7.624   6.307 -0.0295 -0.3233 -0.1669
 2190W        W 4955   6.561   0.449   1.226  0.0300 -0.1692 -0.2514
 2191W        W 4956   8.617   7.564   5.931 -0.2392 -0.3415 -0.1353
 2192W        W 4957   8.166   5.905   0.633 -0.1808 -0.0565  0.0978
 2193W        W 4958   2.323   3.755   1.129 -0.1151  0.2170  0.0437
 2194W        W 4959   3.587   5.027   0.159 -0.1240 -0.1689 -0.3325
 2195W        W 4960   8.935   0.975   5.405  0.0112  0.0054 -0.1392
 2196W        W 4961   5.142   3.170   1.015 -0.1508  0.0890  0.1525
 2197W        W 4962   6.574   1.866   5.154  0.1764 -0.0397 -0.0259
 2198W        W 4963   7.642   2.074   6.281  0.3256 -0.1456 -0.0292
 2199W        W 4964   1.907   6.132   6.131 -0.2594 -0.0135 -0.3615
 2200W        W 4965   5.280   5.078   0.476  0.2115  0.2569 -0.0771
 2201W        W 4966   1.141   8.182   6.800  0.3773  0.3191 -0.0727
 2202W        W 4967   0.872   2.679   6.347 -0.0711  0.0544  0.2344
 2203W        W 4968   4.630   4.803   6.514  0.1189  0.1535 -0.2530
 2204W        W 4969   8.920   0.193   1.132 -0.3331  0.1163  0.2249
 2205W        W 4970   1.027   7.522   1.022  0.1521  0.0905  0.0763
 2206W        W 4971   8.802   0.931   0.447  0.3402 -0.0064 -0.1281
 2207W        W 4972   8.912   0.252   0.346 -0.0867  0.0871 -0.0174
 2208W        W 4973   2.068   7.687   1.524 -0.0435 -0.0487  0.4111
 2209W        W 4974   3.122   0.812   6.001 -0.3843  0.5226 -0.0122
 2210W        W 4975   5.125   2.448   5.748  0.1710 -0.1851  0.1274
 2211W        W 4976   2.867   0.924   0.823  0.0856 -0.3823 -0.1347
 2212W        W 4977   1.630   3.876   0.420 -0.2660 -0.0336 -0.2168
 2213W        W 4978   8.435   2.085   6.390 -0.4484  0.2831  0.1974
 2214W        W 4979   4.642   4.199   4.961 -0.0257 -0.1274  0.1455
 2215W        W 4980   5.852   2.417   5.839 -0.0924 -0.1618  0.0283
 2216W        W 4981   2.639   2.617   0.680  0.2104 -0.0019 -0.3546
 2217W        W 4982   4.564   4.082   5.939  0.1456  0.2435 -0.5179
 2218W        W 4983   7.737   7.979   2.301  0.2558  0.2144 -0.0542
 2219W        W 4984   2.236   7.093   5.935 -0.3847 -0.1861  0.1589
 2220W        W 4985   5.816   8.315   6.369 -0.0887 -0.3796 -0.1584
 2221W        W 4986   4.856   7.994   6.653  0.0672  0.0287  0.3324
 2222W        W 4987   3.696   6.003   5.500 -0.0256  0.1669  0.0165
 2223W        W 4988   4.504   2.995   5.390  0.5287 -0.0159  0.1811
 2224W        W 4989   7.030   4.992   1.009  0.1380 -0.1229  0.0043
 2225W        W 4990   3.235   8.466   1.011 -0.1021 -0.0899 -0.1495
 2226W        W 4991   3.032   4.275   0.612  0.0852  0.0055 -0.0167
 2227W        W 4992   7.678   1.584   6.443  0.4985  0.1881  0.0400
 2228W        W 4993   3.326   2.889   0.910  0.0883  0.2166 -0.0535
 2229W        W 4994   5.559   6.674   6.634  0.1627 -0.3036 -0.1609
 2230W        W 4995   1.887   6.328   6.950 -0.0191  0.3160 -0.0864
 2231W        W 4996   6.549   6.732   0.540 -0.0272  0.1691  0.2133
 2232W        W 4997   2.237   3.585   6.425  0.0245 -0.0438  0.1593
 2233W        W 4998   2.725   0.111   6.632  0.0327  0.0616 -0.2269
 2234W        W 4999   2.993   5.248   6.196 -0.1275 -0.2729 -0.2382
 2235W        W 5000   2.523   7.546   5.842 -0.0868 -0.1761  0.0048
 2236W        W 5001   0.658   0.422   0.547  0.0163 -0.1622 -0.1015
 2237W        W 5002   8.818   5.299   5.437  0.1728  0.2637 -0.0879
 2238W        W 5003   1.432   0.235   7.067  0.5089 -0.0401 -0.3057
 2239W        W 5004   3.465   4.841   0.904  0.2153 -0.2670  0.0390
 2240W        W 5005   7.553   3.583   0.676  0.0362 -0.0577 -0.3116
 2241W        W 5006   1.366   8.849   0.914  0.1922 -0.2523  0.3336
 2242W        W 5007   4.891   1.071   1.267  0.0275 -0.0724 -0.2401
 2243W        W 5008   7.186   8.673   1.301 -0.0606 -0.0381 -0.1341
 2244W        W 5009   1.813   3.260   5.615 -0.0815  0.1328  0.1414
 2245W        W 5010   7.853   7.737   6.460  0.3222 -0.2961  0.1598
 2246W        W 5011   7.771   6.602   1.485 -0.1582 -0.1600 -0.0961
 2247W        W 5012   3.200   2.821   5.807 -0.0149 -0.4322  0.2741
 2248W        W 5013   1.390   2.807   0.324  0.1055 -0.1772 -0.1107
 2249W        W 5014   4.322   0.276   0.931 -0.0291 -0.0960 -0.0459
 2250W        W 5015   0.357   8.130   0.762 -0.1748 -0.0190 -0.1035
 2251W        W 5016   0.119   1.858   0.481 -0.0403 -0.0282 -0.2742
 2252W        W 5017   6.890   8.962   0.941  0.1074 -0.2018  0.2847
 2253W        W 5018   4.712   6.548   6.401  0.2924 -0.2692  0.5460
 2254W        W 5019   0.302   6.485   5.531  0.0513 -0.0048  0.2086
 2255W        W 5020   7.348   6.477   1.258  0.2427 -0.1553  0.1299
 2256W        W 5021   5.384   0.286   6.705 -0.0427  0.3384 -0.1658
 2257W        W 5022   4.916   6.299   0.890 -0.0734 -0.4638 -0.1863
 2258W        W 5023   3.346   7.671   1.129  0.1957 -0.1040 -0.0453
 2259W        W 5024   1.433   6.367   1.096  0.1037 -0.0943  0.0143
 2260W        W 5025   2.869   1.845   6.892 -0.0862 -0.4356 -0.0769
 2261W        W 5026   2.873   4.825   0.277  0.1967  0.1036 -0.0593
 2262W        W 5027   4.032   1.220   0.482  0.3094 -0.3774  0.2800
 2263W        W 5028   4.172   4.628   5.678 -0.0071 -0.0249  0.0512
 2264W        W 5029   5.151   2.891   6.127 -0.3547 -0.0322 -0.1706
 2265W        W 5030   4.357   4.290   0.924  0.0453  0.0345 -0.2184
 2266W        W 5031   7.561   4.854   5.790  0.3021  0.1005  0.1002
 2267W        W 5032   7.289   7.125   6.179 -0.0490 -0.0027 -0.2364
 2268W        W 5033   1.933   0.012   0.368  0.0150  0.0320  0.2192
 2269W        W 5034   0.667   8.190   0.356 -0.0634  0.0890 -0.2693
 2270W        W 5035   6.545   2.018   1.011  0.0529  0.4014 -0.2342
 2271W        W 5036   5.395   7.055   0.847 -0.1475 -0.3432 -0.0687
 2272W        W 5037   4.948   2.900   5.632  0.1587 -0.0295 -0.0796
 2273W        W 5038   0.725   5.891   0.272  0.0993 -0.1199 -0.0456
 2274W        W 5039   0.112   6.700   5.971 -0.1020 -0.0219  0.0344
 2275W        W 5040   7.054   2.508   6.069  0.1531  0.0584 -0.0493
 2276W        W 5041   7.185   0.187   0.554 -0.2233  0.0675  0.1321
 2277W        W 5042   8.941   0.142   2.011  0.0814  0.2767  0.0909
 2278W        W 5043   4.157   0.366   5.878  0.0102  0.0244 -0.0138
 2279W        W 5044   2.523   6.748   6.478 -0.0453 -0.0802 -0.0767
 2280W        W 5045   6.291   0.150   5.908 -0.2563  0.1293 -0.1616
 2281W        W 5046   0.673   2.275   0.310  0.3007 -0.1176 -0.0760
 2282W        W 5047   6.762   5.649   5.844  0.1011  0.0510  0.4031
 2283W        W 5048   4.305   2.569   1.384 -0.2605  0.0078 -0.2417
 2284W        W 5049   7.287   3.247   1.032  0.4127  0.0851  0.0771
 2285W        W 5050   4.712   2.988   7.182  0.3853  0.0611  0.4551
 2286W        W 5051   4.013   5.366   0.332 -0.1121 -0.0822  0.1056
 2287W        W 5052   2.345   1.676   7.042  0.1367 -0.1492 -0.2655
 2288W        W 5053   8.659   8.011   6.265  0.2606 -0.2894  0.2051
 2289W        W 5054   1.606   8.578   1.236  0.2870 -0.0400 -0.4100
 2290W        W 5055   0.627   1.996   5.747 -0.1553  0.0214 -0.0115
 2291W        W 5056   3.137   8.130   6.429 -0.1482  0.1373  0.0587
 2292W        W 5057   8.746   8.616   0.327  0.2514 -0.0147  0.1698
 2293W        W 5058   5.929   6.318   1.471 -0.3178  0.0695  0.0147
 2294W        W 5059   4.744   2.367   1.428  0.0006 -0.1016 -0.4375
 2295W        W 5060   7.647   3.742   6.546  0.1514 -0.0043 -0.0291
 2296W        W 5061   4.743   2.581   6.049 -0.2591  0.0628 -0.1520
 2297W        W 5062   3.030   4.407   0.075 -0.1384  0.0541 -0.0414
 2298W        W 5063   2.277   7.043   0.099  0.1810 -0.4938 -0.0816
 2299W        W 5064   5.766   8.886   6.528 -0.2927 -0.0146 -0.0711
 2300W        W 5065   7.614   4.079   1.206  0.0892  0.0198  0.0511
 2301W        W 5066   7.877   6.069   7.029 -0.1783  0.2921 -0.1007
 2302W        W 5067   2.062   7.348   6.933  0.4163  0.1936 -0.1487
 2303W        W 5068   8.410   3.664   5.848  0.2671 -0.0892  0.0927
 2304W        W 5069   1.692   7.017   6.206 -0.1205  0.1327  0.1833
 2305W        W 5070   6.521   5.326   7.063 -0.2537 -0.1015  0.2042
 2306W        W 5071   4.408   2.660   0.903 -0.0530  0.0195 -0.0010
 2307W        W 5072   2.444   7.549   0.256  0.1311 -0.4613 -0.0202
 2308W        W 5073   5.788   5.466   0.926  0.0696  0.2054 -0.0720
 2309W        W 5074   7.286   5.514   0.747 -0.2193  0.2030  0.0293
 2310W        W 5075   7.322   2.101   0.488  0.0119 -0.0938 -0.2600
 2311W        W 5076   7.315   5.938   7.014 -0.0271  0.1414 -0.0936
 2312W        W 5077   0.857   0.545   6.855 -0.0741 -0.2303  0.0060
 2313W        W 5078   2.898   8.106   0.976 -0.0298 -0.1303 -0.0891
 2314W        W 5079   6.745   2.429   0.680  0.0679 -0.0340  0.0148
 2315W        W 5080   0.225   3.675   6.486 -0.1423  0.0737 -0.4234
 2316W        W 5081   6.304   5.862   0.994 -0.3513 -0.2494 -0.2748
 2317W        W 5082   7.263   6.815   1.805  0.0860 -0.0437  0.3041
 2318W        W 5083   8.003   8.586   0.297  0.0670 -0.0579  0.1173
 2319W        W 5084   8.799   1.489   6.646 -0.5047  0.0196  0.2696
 2320W        W 5085   8.892   1.804   6.288 -0.1401  0.5489 -0.1535
 2321W        W 5086   5.075   7.384   5.338 -0.0563  0.0329 -0.2200
 2322W        W 5087   2.913   1.788   6.351  0.4251  0.0652  0.1449
 2323W        W 5088   4.057   6.010   2.176  0.1936  0.1570  0.1858
 2324W        W 5089   7.523   2.665   0.088  0.0258  0.1340 -0.0076
 2325W        W 5090   0.263   3.502   0.533  0.1519  0.2132 -0.0593
 2326W        W 5091   6.994   2.163   6.865 -0.2433 -0.1506  0.0301
 2327W        W 5092   7.791   7.217   6.287  0.3883 -0.1915  0.1902
 2328W        W 5093   5.259   7.433   1.183 -0.2045  0.1764  0.0012
 2329W        W 5094   0.879   1.957   7.180  0.1130  0.1537  0.0021
 2330W        W 5095   2.251   2.321   0.514  0.0796  0.2033  0.0123
 2331W        W 5096   6.437   1.044   6.890 -0.2043 -0.0139  0.1065
 2332W        W 5097   8.014   6.855   6.457  0.0218 -0.1103 -0.0531
 2333W        W 5098   2.334   5.972   1.274 -0.4447  0.0346 -0.0540
 2334W        W 5099   3.630   4.557   6.097  0.0219  0.0189  0.0831
 2335W        W 5100   4.312   5.364   5.717 -0.0448 -0.1688  0.1448
 2336W        W 5101   0.490   6.755   0.139 -0.1740  0.0932 -0.4149
 2337W        W 5102   2.481   6.182   6.069  0.4058 -0.1291  0.1145
 2338W        W 5103   1.931   2.126   7.007  0.0274 -0.3156 -0.2875
 2339W        W 5104   7.886   7.729   1.733  0.0537 -0.1036  0.5620
 2340W        W 5105   6.407   2.176   1.485  0.1773 -0.1468  0.3763
 2341W        W 5106   4.149   2.181   0.947 -0.0913 -0.0578  0.0735
 2342W        W 5107   7.303   7.777   0.972 -0.1789  0.1245 -0.1965
 2343W        W 5108   4.951   2.370   0.663 -0.3397  0.1843  0.0622
 2344W        W 5109   2.971   8.335   6.894  0.1360  0.2157  0.2994
 2345W        W 5110   6.491   2.325   6.982 -0.1218 -0.1312  0.2038
 2346W        W 5111   3.882   2.339   6.915  0.0200 -0.0600  0.0584
 2347W        W 5112   0.272   0.627   0.317  0.0471 -0.2258  0.3628
 2348W        W 5113   1.566   3.292   0.826  0.0132 -0.1435  0.1310
 2349W        W 5114   5.966   7.928   6.100  0.4601  0.2333  0.0555
 2350W        W 5115   6.544   2.940   6.234 -0.0778 -0.1140 -0.1032
 2351W        W 5116   1.103   4.550   1.118  0.0530  0.2279 -0.1696
 2352W        W 5117   4.162   1.009   6.692 -0.0066  0.1495 -0.0307
 2353W        W 5118   0.178   4.303   5.722 -0.2769 -0.2033  0.3026
 2354W        W 5119   7.687   5.842   0.673 -0.2560  0.1827 -0.0652
 2355W        W 5120   5.343   6.412   1.273 -0.0935 -0.1627  0.0994
 2356W        W 5121   0.675   2.709   0.738  0.1151  0.1794  0.2469
 2357W        W 5122   7.433   1.081   0.871 -0.0904 -0.2833  0.1709
 2358W        W 5123   0.302   6.396   1.265 -0.2787 -0.0871 -0.3558
 2359W        W 5124   1.479   1.909   7.219  0.1159  0.1678  0.3453
 2360W        W 5125   7.276   0.832   5.764  0.1899  0.1071 -0.0380
 2361W        W 5126   3.309   5.985   6.593  0.1830 -0.0917 -0.3394
 2362W        W 5127   8.850   3.742   0.548 -0.1075 -0.1435 -0.0389
 2363W        W 5128   7.647   7.678   0.075  0.2157 -0.3632 -0.1203
 2364W        W 5129   8.494   2.632   6.692  0.1036 -0.3475  0.0114
 2365W        W 5130   3.308   7.908   6.025  0.1337  0.2903 -0.0488
 2366W        W 5131   8.026   0.255   6.372 -0.2731 -0.2663  0.3970
 2367W        W 5132   7.953   7.085   1.296 -0.0461 -0.0929 -0.0774
 2368W        W 5133   1.680   6.329   0.666 -0.3099  0.1251  0.3022
 2369W        W 5134   7.090   5.110   0.517 -0.2437  0.4171 -0.1034
 2370W        W 5135   6.084   8.711   6.122  0.1186  0.1125  0.1498
 2371W        W 5136   8.604   3.251   6.059 -0.0176 -0.2280  0.0225
 2372W        W 5137   5.648   5.269   6.933  0.1007  0.0848  0.0757
 2373W        W 5138   8.034   5.660   1.044  0.1141  0.0346 -0.1355
 2374W        W 5139   7.145   5.035   6.513  0.2930 -0.7339 -0.1470
 2375W        W 5140   1.177   4.037   0.234  0.1328  0.1584  0.0993
 2376W        W 5141   8.834   3.432   5.636 -0.4891  0.0494 -0.2691
 2377W        W 5142   6.693   4.920   6.845 -0.1585 -0.0887  0.0726
 2378W        W 5143   8.862   7.178   2.529  0.1010  0.2928  0.0543
 2379W        W 5144   1.021   3.982   1.270  0.1469  0.3071  0.0810
 2380W        W 5145   5.050   8.081   0.743 -0.1053 -0.1751 -0.1201
 2381W        W 5146   8.824   8.131   6.671  0.0941  0.2121  0.1567
 2382W        W 5147   6.326   6.257   0.356 -0.1968 -0.0855 -0.2238
 2383W        W 5148   6.895   2.184   5.747 -0.1111 -0.3716 -0.3019
 2384W        W 5149   0.393   3.459   7.265 -0.0307 -0.2067 -0.1139
 2385W        W 5150   0.673   6.413   0.465 -0.3245  0.2505  0.2357
 2386W        W 5151   0.123   5.179   6.124 -0.0639 -0.1156  0.2366
 2387W        W 5152   3.596   4.484   5.549  0.3546 -0.0203 -0.0313
 2388W        W 5153   4.908   6.959   0.028  0.1297 -0.1350  0.1324
 2389W        W 5154   7.769   5.198   6.158 -0.0830  0.0366  0.2490
 2390W        W 5155   4.454   4.277   5.479  0.1541  0.4634  0.1704
 2391W        W 5156   8.549   5.024   0.565 -0.1044 -0.1231  0.1777
 2392W        W 5157   7.797   2.082   0.235  0.0107  0.0489  0.0970
 2393W        W 5158   5.534   0.179   7.210 -0.0025 -0.1479 -0.0274
 2394W        W 5159   4.278   8.777   1.431 -0.0783  0.0157  0.0545
 2395W        W 5160   1.240   4.168   0.827 -0.3567  0.2383  0.2685
 2396W        W 5161   4.470   4.626   0.356 -0.2772 -0.0793 -0.2013
 2397W        W 5162   4.021   2.152   1.479  0.3134 -0.0501  0.1030
 2398W        W 5163   8.642   3.434   1.313  0.0906  0.2385 -0.1311
 2399W        W 5164   8.253   1.091   5.702  0.1357 -0.0643 -0.0945
 2400W        W 5165   8.341   4.865   6.876 -0.1904  0.2396  0.0772
 2401W        W 5166   0.549   4.974   6.592 -0.2039 -0.0525  0.3071
 2402W        W 5167   6.622   1.301   5.722  0.0080  0.3484 -0.0955
 2403W        W 5168   7.240   2.425   1.427  0.1216  0.4603  0.1363
 2404W        W 5169   2.563   1.013   6.614  0.0876  0.3192 -0.0844
 2405W        W 5170   3.825   4.492   6.950 -0.0853  0.2051 -0.2970
 2406W        W 5171   7.927   7.295   0.365 -0.1878  0.0365 -0.0424
 2407W        W 5172   1.152   1.430   1.769  0.0348 -0.1516  0.0926
 2408W        W 5173   3.280   5.740   7.065  0.1583  0.0685  0.2091
 2409W        W 5174   2.965   7.368   6.512 -0.0767  0.2718  0.0865
 2410W        W 5175   1.611   8.286   1.880  0.1173  0.0721  0.2000
 2411W        W 5176   1.071   1.519   0.095 -0.0031  0.1377  0.0337
 2412W        W 5177   5.194   2.626   6.614  0.3248  0.0476 -0.1933
 2413W        W 5178   1.800   7.459   6.519  0.0883  0.1957 -0.1728
 2414W        W 5179   8.377   8.380   0.073 -0.2694 -0.2053 -0.2774
 2415W        W 5180   1.284   4.898   6.114  0.3027  0.1361 -0.0073
 2416W        W 5181   1.789   2.631   0.535  0.0552  0.0992 -0.0964
 2417W        W 5182   1.717   2.209   0.232  0.0039 -0.0320  0.1391
 2418W        W 5183   3.961   2.274   1.977  0.2002 -0.1003  0.1883
 2419W        W 5184   0.580   4.369   6.275 -0.3581  0.1579  0.1118
 2420W        W 5185   5.828   5.942   5.146 -0.1873  0.1353  0.2085
 2421W        W 5186   6.063   6.384   0.899 -0.2524 -0.2175  0.3385
 2422W        W 5187   8.286   6.446   6.541 -0.0574  0.1701 -0.1226
 2423W        W 5188   3.693   1.961   6.739  0.0217 -0.1764  0.1002
 2424W        W 5189   2.606   7.158   6.220  0.1388 -0.3398  0.1097
 2425W        W 5190   4.698   8.483   7.250  0.0988  0.2208 -0.0436
 2426W        W 5191   7.270   5.867   6.153 -0.0267  0.0281  0.0658
 2427W        W 5192   1.249   3.625   6.447 -0.1991  0.2809 -0.2402
 2428W        W 5193   0.659   4.684   0.659 -0.2556 -0.1008  0.2649
 2429W        W 5194   1.269   0.420   6.594 -0.2341 -0.2609 -0.0765
 2430W        W 5195   0.767   7.726   1.573 -0.3406  0.1040 -0.0265
 2431W        W 5196   0.352   4.724   5.973  0.0919 -0.4101  0.0945
 2432W        W 5197   8.936   5.880   6.366 -0.1534 -0.0086  0.0291
 2433W        W 5198   0.070   2.991   5.595  0.0427  0.2459  0.0452
 2434W        W 5199   7.705   8.945   0.474  0.2016  0.1573  0.1149
 2435W        W 5200   8.098   1.029   7.042 -0.4798  0.0562 -0.0975
 2436W        W 5201   4.238   4.600   5.163 -0.2160  0.3452 -0.3182
 2437W        W 5202   5.783   4.858   6.638  0.0640  0.0824  0.4588
 2438W        W 5203   0.083   8.203   1.229  0.0919 -0.0989  0.1956
 2439W        W 5204   4.707   0.348   0.550 -0.2467 -0.2391  0.0794
 2440W        W 5205   7.494   3.881   0.151  0.0827 -0.0345 -0.1636
 2441W        W 5206   4.485   0.900   6.045  0.2217  0.1140 -0.0198
 2442W        W 5207   2.539   6.705   0.390  0.1129 -0.2172  0.2065
 2443W        W 5208   2.568   1.183   1.279  0.0394  0.0804  0.1377
 2444W        W 5209   7.088   5.909   1.553 -0.1311 -0.2623  0.0691
 2445W        W 5210   0.778   5.867   7.045  0.0858  0.1331 -0.1383
 2446W        W 5211   0.901   1.698   0.967  0.2195 -0.0570  0.0582
 2447W        W 5212   6.649   5.872   0.505 -0.1856  0.2982 -0.1646
 2448W        W 5213   2.549   0.842   6.133 -0.2948  0.1205  0.1082
 2449W        W 5214   2.422   0.723   0.130 -0.2351  0.0614  0.1499
 2450W        W 5215   6.737   3.547   1.799 -0.0311  0.2275 -0.2303
 2451W        W 5216   5.194   4.606   0.643  0.0518 -0.0386 -0.0797
 2452W        W 5217   4.363   2.951   6.431  0.0819  0.0550  0.2903
 2453W        W 5218   3.881   8.569   6.070  0.2636 -0.2499 -0.2691
 2454W        W 5219   1.540   7.946   6.633 -0.1904 -0.2635  0.1748
 2455W        W 5220   2.860   3.495   5.926  0.2301  0.0040 -0.0035
 2456W        W 5221   0.125   5.176   6.688  0.0947  0.1184 -0.1048
 2457W        W 5222   2.245   4.859   5.732  0.2508 -0.0054 -0.0080
 2458W        W 5223   6.375   8.944   1.106  0.0167 -0.0944  0.3366
 2459W        W 5224   3.067   0.241   7.012  0.0013 -0.2338  0.1499
 2460W        W 5225   2.406   8.694   6.761  0.1220  0.0751 -0.0740
 2461W        W 5226   4.412   4.660   7.046 -0.0965  0.1319 -0.2225
 2462W        W 5227   8.156   6.371   0.696  0.1786  0.0359 -0.4135
 2463W        W 5228   0.557   8.667   6.032 -0.0693  0.1444  0.0930
 2464W        W 5229   6.535   3.007   6.743  0.2352  0.0031  0.1154
 2465W        W 5230   8.462   6.810   0.024  0.2720 -0.1540 -0.2319
 2466W        W 5231   4.546   6.559   7.288  0.0620 -0.2713 -0.0463
 2467W        W 5232   3.465   3.844   0.732  0.0549  0.1932  0.0464
 2468W        W 5233   8.293   1.383   0.686 -0.1829  0.1962 -0.0188
 2469W        W 5234   2.705   4.685   7.073 -0.1868  0.1730  0.0575
 2470W        W 5235   3.339   2.936   5.286 -0.2491 -0.2289 -0.4402
 2471W        W 5236   6.576   0.018   1.898 -0.2136  0.0874  0.0641
 2472W        W 5237   7.307   8.042   5.832 -0.3892 -0.0701  0.3352
 2473W        W 5238   3.722   4.472   0.156  0.0846 -0.2271  0.0676
 2474W        W 5239   1.546   1.263   6.525  0.1356 -0.2569 -0.0004
 2475W        W 5240   5.770   4.607   1.390 -0.3399  0.1248  0.3190
 2476W        W 5241   5.755   1.546   0.052  0.1662 -0.1689 -0.1264
 2477W        W 5242   3.225   2.117   6.601 -0.2189 -0.3413  0.1043
 2478W        W 5243   2.650   3.841   6.248  0.0655  0.0939  0.0691
 2479W        W 5244   3.037   5.770   1.597 -0.1510 -0.1073 -0.0601
 2480W        W 5245   5.077   4.955   5.816 -0.1575 -0.2024 -0.0954
 2481W        W 5246   6.189   5.374   1.603  0.0386 -0.2137  0.0099
 2482W        W 5247   6.880   0.091   7.114 -0.0287 -0.0154  0.0574
 2483W        W 5248   7.526   6.084   6.616  0.0609  0.0467  0.0199
 2484W        W 5249   5.332   5.471   1.055  0.2447  0.0342  0.2367
 2485W        W 5250   6.586   1.181   1.259  0.0658  0.1570  0.0047
 2486W        W 5251   6.447   6.042   5.830 -0.3667  0.2181 -0.0592
 2487W        W 5252   8.827   4.172   0.780  0.2164  0.1838  0.1637
 2488W        W 5253   1.620   0.732   6.350  0.1332 -0.1850  0.1277
 2489W        W 5254   2.865   2.086   5.805 -0.0549 -0.1323  0.0535
 2490W        W 5255   2.913   3.873   0.371  0.0116  0.4289  0.0443
 2491W        W 5256   5.062   1.870   1.028  0.0335  0.3040 -0.1725
 2492W        W 5257   8.599   2.910   1.495  0.1660  0.3285  0.3179
 2493W        W 5258   7.430   0.722   1.190 -0.2301  0.5210  0.0421
 2494W        W 5259   7.678   8.562   7.106  0.2690 -0.1292 -0.0598
 2495W        W 5260   0.856   0.734   5.842 -0.0397 -0.0446  0.1115
 2496W        W 5261   3.783   0.750   0.307  0.3652  0.0400  0.0063
 2497W        W 5262   0.559   7.597   0.683 -0.2468 -0.3296 -0.1864
 2498W        W 5263   7.721   6.618   1.995 -0.0118 -0.6495  0.0142
 2499W        W 5264   5.222   1.666   5.989 -0.0068 -0.0417 -0.0807
 2500W        W 5265   6.950   1.825   0.120  0.0009  0.0282  0.2501
 2501W        W 5266   1.039   7.687   6.951 -0.0025  0.0123  0.2446
 2502W        W 5267   7.148   1.500   6.398  0.0946 -0.2534  0.0450
 2503W        W 5268   6.988   2.899   0.797 -0.0009 -0.0007  0.2543
 2504W        W 5269   8.315   0.856   0.582  0.1198 -0.0680 -0.1408
 2505W        W 5270   6.455   3.395   1.094  0.4600 -0.3636  0.1833
 2506W        W 5271   5.065   0.273   0.174 -0.0296 -0.0067  0.2603
 2507W        W 5272   8.343   4.884   2.000 -0.1338  0.0301  0.2400
 2508W        W 5273   7.437   3.098   0.565 -0.0130 -0.0105  0.2658
 2509W        W 5274   3.875   1.673   1.372 -0.1203 -0.1020 -0.1589
 2510W        W 5275   2.203   4.918   6.637 -0.2129  0.3441 -0.2432
 2511W        W 5276   2.919   0.533   0.151  0.0201 -0.1654 -0.3825
 2512W        W 5277   0.697   6.560   0.928  0.0986  0.1879 -0.0844
 2513W        W 5278   5.020   5.925   0.075 -0.3293  0.2532 -0.1144
 2514W        W 5279   0.320   0.744   6.566 -0.1800  0.0616  0.1241
 2515W        W 5280   1.707   7.912   6.154 -0.0357 -0.1598  0.0328
 2516W        W 5281   6.975   7.302   6.904 -0.2009 -0.1325  0.0250
 2517W        W 5282   1.704   5.153   0.363 -0.0983 -0.0780  0.0566
 2518W        W 5283   7.602   8.054   6.934 -0.0664  0.1810  0.0693
 2519W        W 5284   5.360   0.785   1.136 -0.3036 -0.4022 -0.1534
 2520W        W 5285   0.803   6.159   5.531  0.0445  0.1423 -0.1865
 2521W        W 5286   5.726   0.713   5.959 -0.3688  0.0092 -0.0863
 2522W        W 5287   1.010   0.052   0.471  0.1463 -0.1721 -0.3318
 2523W        W 5288   0.892   1.069   1.817  0.1547 -0.1156  0.5314
 2524W        W 5289   2.146   1.404   6.684  0.1219  0.0330 -0.1212
 2525W        W 5290   5.560   8.167   0.677  0.0899 -0.1340 -0.1269
 2526W        W 5291   1.026   5.433   0.145  0.0564  0.0498 -0.2207
 2527W        W 5292   0.633   8.675   6.848 -0.2175  0.2875 -0.0313
 2528W        W 5293   8.884   4.852   0.182 -0.3003  0.2713  0.1442
 2529W        W 5294   5.518   6.044   0.010 -0.2068 -0.0184 -0.0656
 2530W        W 5295   1.867   5.836   5.716  0.2464  0.3417  0.0468
 2531W        W 5296   4.930   8.529   0.830  0.0763  0.0685 -0.0179
 2532W        W 5297   7.840   8.111   0.152 -0.1190  0.2591  0.1390
 2533W        W 5298   5.619   7.253   5.688  0.2854 -0.2148 -0.0553
 2534W        W 5299   6.890   2.921   5.174  0.0246  0.0805  0.1207
 2535W        W 5300   2.076   8.484   1.084 -0.0501  0.0980 -0.0404
 2536W        W 5301   6.622   3.202   0.679  0.3199 -0.2670  0.1719
 2537W        W 5302   0.180   2.253   5.272 -0.1215  0.0016 -0.1972
 2538W        W 5303   7.848   0.835   0.853  0.0082  0.1356  0.0096
 2539W        W 5304   3.877   0.148   1.174 -0.1791  0.0177 -0.0381
 2540W        W 5305   1.017   3.162   6.430 -0.3857  0.3187  0.1372
 2541W        W 5306   7.326   2.178   0.004  0.2825 -0.1991 -0.1329
 2542W        W 5307   4.189   3.075   0.645  0.1124 -0.1026  0.2440
 2543W        W 5308   4.355   5.324   6.257 -0.1579 -0.0073 -0.1554
 2544W        W 5309   2.616   0.543   0.578 -0.0975  0.1897  0.3411
 2545W        W 5310   0.867   1.100   7.109  0.0309  0.3260 -0.0102
 2546W        W 5311   1.781   2.788   5.824  0.2726 -0.1540 -0.0888
 2547W        W 5312   3.212   2.701   0.430  0.0890  0.2380  0.4120
 2548W        W 5313   7.147   2.561   0.373 -0.1234 -0.1715 -0.2329
 2549W        W 5314   6.927   3.262   6.424 -0.2015 -0.0296  0.0871
 2550W        W 5315   4.087   1.539   6.721  0.1168  0.1187  0.0137
 2551W        W 5316   0.747   2.144   0.800 -0.3979 -0.3161 -0.0509
 2552W        W 5317   3.918   8.325   6.815  0.2060 -0.2496 -0.1252
 2553W        W 5318   6.283   6.520   6.012 -0.1349  0.4451  0.2032
 2554W        W 5319   3.765   4.003   7.150 -0.0487 -0.1092  0.1574
 2555W        W 5320   6.844   0.998   0.599 -0.2047 -0.0699 -0.0372
 2556W        W 5321   6.601   0.486   1.853  0.0953 -0.2771 -0.0538
 2557W        W 5322   7.006   1.067   1.094  0.2218 -0.1919  0.2590
 2558W        W 5323   8.075   1.896   7.178  0.0199 -0.0349  0.3342
 2559W        W 5324   3.575   2.781   6.901 -0.1485  0.4103 -0.0561
 2560W        W 5325   2.604   4.834   6.343 -0.0197  0.0229  0.1187
 2561W        W 5326   7.754   4.744   7.213  0.1428  0.2325  0.2144
 2562W        W 5327   4.869   6.637   6.941 -0.2247 -0.1391  0.1607
 2563W        W 5328   0.275   2.455   5.708  0.2158  0.0042  0.2473
 2564W        W 5329   6.626   5.651   4.966  0.0705 -0.1169 -0.3063
 2565W        W 5330   5.319   2.331   7.041 -0.1870  0.1479  0.3540
 2566W        W 5331   7.848   6.333   5.384  0.0251 -0.1306 -0.1331
 2567ION     NA 5332   1.550   3.969   0.011  0.0884 -0.0602 -0.5053
 2568ION     NA 5333   3.345   4.266   7.072 -0.1050  0.1693  0.3372
 2569ION     NA 5334   0.126   2.242   0.240 -0.4101  0.2222  0.0250
 2570ION     NA 5335   4.751   1.936   1.338  0.0913 -0.5722 -0.3138
 2571ION     NA 5336   0.475   3.521   0.981 -0.1734 -0.1823  0.0890
 2572ION     NA 5337   6.528   8.914   0.028 -0.1344  0.1817  0.5630
 2573ION     NA 5338   1.648   6.665   6.857  0.2635 -0.0307 -0.4336
 2574ION     NA 5339   3.837   8.321   0.525  0.0405  0.1199  0.2434
 2575ION     NA 5340   3.629   7.580   0.736  0.1144  0.3107 -0.1662
 2576ION     NA 5341   8.281   6.178   6.241 -0.0608  0.0701  0.0433
 2577ION     NA 5342   3.700   1.597   6.572 -0.1281  0.2591 -0.2096
 2578ION     NA 5343   6.827   3.205   1.102 -0.3792  0.0629 -0.0086
 2579ION     NA 5344   6.051   5.600   6.218  0.2279 -0.2266 -0.4122
 2580ION     NA 5345   3.521   0.241   0.827  0.4014 -0.0965 -0.4223
 2581ION     NA 5346   2.060   0.475   6.577 -0.0293 -0.0686 -0.0043
 2582ION     NA 5347   7.173   3.774   7.185  0.1777  0.0666  0.1656
 2583ION     NA 5348   1.425   3.857   6.127 -0.2716 -0.0308 -0.2001
 2584ION     NA 5349   3.262   3.693   5.805  0.1060 -0.0896 -0.3089
 2585ION     NA 5350   0.659   5.675   6.403  0.3838 -0.2130 -0.0255
 2586ION     NA 5351   2.614   1.950   6.576  0.2923  0.1123 -0.3444
 2587ION     NA 5352   8.728   2.266   6.623 -0.0553 -0.0738  0.0237
 2588ION     NA 5353   1.453   4.741   6.508 -0.4237 -0.2439  0.0470
 2589ION     NA 5354   1.547   3.399   0.417  0.1655 -0.0942  0.1262
 2590ION     NA 5355   7.408   0.777   0.181 -0.7503  0.1642 -0.3499
 2591ION     NA 5356   5.698   3.171   5.773 -0.2269  0.3977  0.1426
 2592ION     CL 5357   1.035   5.180   6.090  0.2102 -0.1830 -0.1919
 2593ION     CL 5358   2.014   3.774   0.254 -0.0358 -0.0618  0.1662
 2594ION     CL 5359   1.555   4.761   0.265 -0.1121  0.3451 -0.2183
 2595ION     CL 5360   8.879   2.307   5.810  0.2792  0.2312  0.5230
 2596ION     CL 5361   5.872   2.713   6.297  0.0544 -0.3568  0.3964
 2597ION     CL 5362   5.031   1.131   0.417 -0.1088 -0.1246  0.5419
 2598ION     CL 5363   3.967   7.803   0.098  0.1963  0.1679 -0.1316
 2599ION     CL 5364   3.317   1.874   6.923 -0.1037  0.2372 -0.0166
 2600ION     CL 5365   6.852   5.390   6.786 -0.3856 -0.0363 -0.2013
 2601ION     CL 5366   7.452   0.691   6.129 -0.0925  0.1489 -0.1450
 2602ION     CL 5367   1.439   3.151   0.078 -0.0486  0.3815  0.5181
 2603ION     CL 5368   4.032   8.378   6.415  0.3360 -0.2584 -0.0320
 2604ION     CL 5369   0.658   8.462   0.701  0.1892 -0.2653  0.4828
 2605ION     CL 5370   7.064   0.839   0.203 -0.3247  0.1456  0.4001
 2606ION     CL 5371   3.869   4.878   1.136 -0.0690 -0.0251 -0.0581
 2607ION     CL 5372   2.832   6.962   6.759 -0.1028 -0.0243  0.0628
 2608ION     CL 5373   0.231   2.453   7.094  0.0495 -0.5522  0.2004
 2609ION     CL 5374   3.480   4.335   6.757 -0.1152 -0.3189  0.6808
 2610ION     CL 5375   6.754   3.153   0.245  0.1329  0.1709  0.4296
 2611ION     CL 5376   7.610   0.819   0.489  0.0454 -0.2849  0.0059
 2612ION     CL 5377   4.500   8.507   0.997  0.1427 -0.5880 -0.6802
 2613ION     CL 5378   8.159   2.549   6.961 -0.1324 -0.0646  0.0568
 2614ION     CL 5379   8.807   5.283   0.321  0.8533 -0.0069  0.3099
 2615ION     CL 5380   2.115   8.032   6.266 -0.1480  0.4380  0.1029
 2616ION     CL 5381   8.489   1.838   7.206  0.0741  0.5235 -0.1506
   8.99409   8.99409   7.29367
