assembly
 5381
    1ALA     BB    1   8.180   2.209   4.633 -0.2692  0.0224  0.1517
    1ALA    SC1    2   8.222   2.459   4.541 -0.2328 -0.0279  0.0297
    2LEU     BB    3   8.336   1.998   4.416 -0.0924  0.1814  0.0104
    2LEU    SC1    4   8.342   1.671   4.612  0.1894  0.1321  0.1767
    3ALA     BB    5   8.082   1.959   4.229  0.3043  0.0106  0.1864
    3ALA    SC1    6   8.040   1.705   4.309  0.2805 -0.0213  0.0748
    4LEU     BB    7   8.047   2.338   4.214 -0.2186 -0.0427  0.0942
    4LEU    SC1    8   7.811   2.347   3.946 -0.0030 -0.1392 -0.3433
    5ALA     BB    9   8.339   2.410   4.100  0.1433  0.0298 -0.3839
    5ALA    SC1   10   8.565   2.361   4.240 -0.1124 -0.1637 -0.0233
    6LEU     BB   11   8.337   2.172   3.883 -0.0673 -0.1351  0.3003
    6LEU    SC1   12   8.598   1.965   4.036  0.2381  0.0817 -0.0513
    7ALA     BB   13   8.095   2.212   3.708  0.3210  0.0058 -0.0080
    7ALA    SC1   14   8.005   2.178   3.456 -0.0717 -0.4438  0.1768
    8LEU     BB   15   8.114   2.533   3.598 -0.0328 -0.1136 -0.2838
    8LEU    SC1   16   7.781   2.632   3.502 -0.1774  0.2124 -0.3940
    9ALA     BB   17   8.475   2.504   3.508  0.3801  0.0003 -0.1754
    9ALA    SC1   18   8.531   2.606   3.751  0.1417 -0.1896 -0.0352
   10LEU     BB   19   8.392   2.246   3.318  0.1866 -0.0949  0.1301
   10LEU    SC1   20   8.530   2.004   3.539  0.3671  0.6074 -0.1113
   11ALA     BB   21   8.120   2.438   3.137  0.2049  0.1478  0.3017
   11ALA    SC1   22   7.873   2.331   3.144  0.1986  0.1400  0.0511
   12LEU     BB   23   8.210   2.775   3.080 -0.0376 -0.2231  0.1977
   12LEU    SC1   24   7.862   2.808   3.073  0.1090 -0.3572  0.4307
   13ALA     BB   25   8.547   2.724   3.000  0.0164 -0.2106  0.0232
   13ALA    SC1   26   8.597   2.870   3.221  0.3255 -0.0553 -0.1432
   14LEU     BB   27   8.630   2.507   2.808  0.1437  0.4120  0.0915
   14LEU    SC1   28   8.738   2.289   3.042 -0.2513 -0.2648  0.1234
   15ALA     BB   29   8.377   2.605   2.615  0.0361  0.1401 -0.1516
   15ALA    SC1   30   8.131   2.591   2.727  0.2387 -0.3553  0.2690
   16LEU     BB   31   8.350   2.882   2.462 -0.0864  0.1505 -0.1596
   16LEU    SC1   32   8.176   3.058   2.740  0.1648  0.1117 -0.2358
   17TRP     BB   33   8.692   2.888   2.410  0.2650  0.0636 -0.0296
   17TRP    SC1   34   8.878   2.824   2.661  0.2932 -0.2577 -0.1617
   17TRP    SC2   35   8.985   2.667   2.937  0.0107  0.2176  0.2344
   17TRP    SC3   36   9.099   2.855   2.830  0.1984 -0.0707 -0.1269
   17TRP    SC4   37   9.196   3.050   2.765  0.2135 -0.1029 -0.2516
   17TRP    SC5   38   9.337   2.881   2.958  0.2759 -0.1399 -0.3289
   18TRP     BB   39   8.752   2.699   2.222 -0.1578 -0.1022 -0.1046
   18TRP    SC1   40   9.007   2.584   2.323  0.2266  0.4260 -0.2129
   18TRP    SC2   41   9.053   2.322   2.527 -0.0406  0.1276 -0.5234
   18TRP    SC3   42   9.166   2.537   2.552  0.0845  0.0308 -0.1882
   18TRP    SC4   43   9.285   2.727   2.579  0.1987 -0.0780  0.1143
   18TRP    SC5   44   9.319   2.514   2.777 -0.0464 -0.3525 -0.1309
   19GLY     BB   45   8.439   2.587   2.145  0.0461  0.1139 -0.0425
   20POPC   NC3   46   7.941   6.011   5.809 -0.3424  0.0205  0.0093
   20POPC   PO4   47   8.235   5.889   5.594  0.4100 -0.1497  0.0399
   20POPC   GL1   48   8.320   5.703   5.264  0.2861 -0.1971  0.1439
   20POPC   GL2   49   8.615   5.661   5.252 -0.2412 -0.1518 -0.0152
   20POPC   C1A   50   8.140   5.825   4.874  0.0786  0.1735  0.0303
   20POPC   D2A   51   7.773   5.835   4.571  0.1482  0.2577  0.0558
   20POPC   C3A   52   7.560   5.921   4.132 -0.2990 -0.1197  0.4566
   20POPC   C4A   53   7.761   6.112   3.816 -0.0305  0.0082  0.0273
   20POPC   C1B   54   8.985   5.751   5.006 -0.0648 -0.1712 -0.0194
   20POPC   C2B   55   9.118   6.155   4.798 -0.1022  0.0657 -0.1371
   20POPC   C3B   56   9.103   6.443   4.465 -0.1606  0.1349 -0.1415
   20POPC   C4B   57   9.421   6.502   4.125  0.2121  0.1190  0.0787
   21POPC   NC3   58   5.183   8.450   5.469  0.0342  0.0785  0.1716
   21POPC   PO4   59   5.252   8.088   5.431 -0.0460 -0.0507 -0.1035
   21POPC   GL1   60   5.100   7.989   5.078  0.1911 -0.3558  0.1927
   21POPC   GL2   61   4.965   8.312   5.025 -0.2937  0.3153 -0.0513
   21POPC   C1A   62   5.306   8.147   4.717 -0.0284 -0.4001  0.1815
   21POPC   D2A   63   5.398   8.340   4.329 -0.2229  0.2139  0.2236
   21POPC   C3A   64   5.250   8.202   3.895 -0.1558  0.0539  0.1980
   21POPC   C4A   65   5.030   7.800   3.780  0.2305 -0.0177 -0.1736
   21POPC   C1B   66   4.825   8.053   4.673 -0.0330  0.0133  0.0918
   21POPC   C2B   67   4.733   7.955   4.236  0.2974 -0.1523  0.0079
   21POPC   C3B   68   4.500   7.730   3.860 -0.3783  0.2667 -0.0457
   21POPC   C4B   69   4.323   7.358   3.657 -0.2987  0.0931 -0.2460
   22POPC   NC3   70   7.038   3.084   5.493 -0.1374 -0.0331 -0.3037
   22POPC   PO4   71   6.715   3.334   5.513  0.0337 -0.1130  0.0345
   22POPC   GL1   72   6.827   3.488   5.107 -0.0304  0.4737  0.0010
   22POPC   GL2   73   6.851   3.768   5.220  0.3491  0.1265 -0.4585
   22POPC   C1A   74   6.902   3.375   4.634  0.2593  0.3488  0.0417
   22POPC   D2A   75   6.914   3.600   4.280  0.1311 -0.0256  0.1122
   22POPC   C3A   76   6.865   3.468   3.865 -0.1402  0.1573 -0.0582
   22POPC   C4A   77   6.718   3.153   3.481 -0.4540  0.0819  0.0804
   22POPC   C1B   78   7.039   3.806   4.780 -0.0660 -0.1124  0.0148
   22POPC   C2B   79   7.154   4.077   4.429 -0.1202  0.1209  0.0789
   22POPC   C3B   80   7.223   4.046   3.961 -0.2766 -0.0854 -0.1247
   22POPC   C4B   81   7.242   4.186   3.530  0.0969 -0.1462 -0.2531
   23POPC   NC3   82   2.308   0.690   5.683 -0.0463  0.0610 -0.1170
   23POPC   PO4   83   2.063   0.562   5.400 -0.0887 -0.2606 -0.0970
   23POPC   GL1   84   1.828   0.567   5.100  0.0766  0.0959  0.2026
   23POPC   GL2   85   2.084   0.593   4.912 -0.1043 -0.1539 -0.0641
   23POPC   C1A   86   1.511   0.775   4.810 -0.0088  0.2537 -0.0036
   23POPC   D2A   87   1.116   0.843   4.603 -0.1459  0.1257 -0.0851
   23POPC   C3A   88   0.912   0.703   4.249  0.0365  0.1786 -0.1324
   23POPC   C4A   89   0.839   0.714   3.855  0.3356 -0.2029  0.1841
   23POPC   C1B   90   1.920   0.203   4.673 -0.3325 -0.1443 -0.1402
   23POPC   C2B   91   1.700  -0.068   4.306 -0.0745 -0.1198  0.0665
   23POPC   C3B   92   1.796  -0.093   3.837 -0.0208 -0.2301 -0.2613
   23POPC   C4B   93   1.795   0.021   3.387  0.1371  0.0200 -0.1204
   24POPC   NC3   94   7.072   0.118   5.407 -0.1479  0.0267 -0.1082
   24POPC   PO4   95   7.478   0.175   5.456  0.0178 -0.1892  0.0709
   24POPC   GL1   96   7.656   0.048   5.014 -0.0923 -0.2120 -0.1571
   24POPC   GL2   97   7.360   0.086   4.973 -0.2728  0.0040  0.0660
   24POPC   C1A   98   7.598  -0.212   4.662  0.0094  0.1344  0.1820
   24POPC   D2A   99   7.414  -0.616   4.371  0.0949 -0.1876  0.2292
   24POPC   C3A  100   6.999  -0.620   4.133  0.1120 -0.1173  0.2882
   24POPC   C4A  101   6.762  -0.567   3.723 -0.0310 -0.2476  0.1479
   24POPC   C1B  102   7.044   0.080   4.734 -0.0979  0.0803  0.0468
   24POPC   C2B  103   6.820   0.090   4.330  0.1490 -0.0323  0.1948
   24POPC   C3B  104   6.800  -0.128   3.924 -0.3103  0.0055 -0.1789
   24POPC   C4B  105   6.732  -0.055   3.525 -0.1555  0.0052  0.0030
   25POPC   NC3  106   3.855   3.471   5.386  0.3343 -0.0417 -0.1563
   25POPC   PO4  107   4.202   3.532   5.229 -0.0872  0.2765  0.0880
   25POPC   GL1  108   4.193   3.556   4.895 -0.0840 -0.2594 -0.1279
   25POPC   GL2  109   3.927   3.606   4.849 -0.4281  0.3752  0.1304
   25POPC   C1A  110   4.286   3.958   4.675  0.0161 -0.0985  0.2433
   25POPC   D2A  111   4.391   4.139   4.238 -0.0980  0.1799 -0.3556
   25POPC   C3A  112   4.632   3.830   3.889 -0.0044 -0.2048 -0.0984
   25POPC   C4A  113   4.754   3.622   3.503  0.1317  0.0095  0.2012
   25POPC   C1B  114   3.799   3.860   4.424  0.1595  0.0125  0.1338
   25POPC   C2B  115   3.901   4.266   4.163 -0.1449  0.1767 -0.0440
   25POPC   C3B  116   3.731   4.501   3.827  0.1010  0.2965  0.1313
   25POPC   C4B  117   3.583   4.621   3.391  0.1497 -0.1898 -0.0013
   26POPC   NC3  118   3.038   7.561   5.338 -0.1565  0.4044 -0.1654
   26POPC   PO4  119   3.005   7.225   5.550  0.0750 -0.0282  0.0165
   26POPC   GL1  120   2.871   6.995   5.298 -0.1265 -0.1429 -0.0495
   26POPC   GL2  121   2.634   6.906   5.130  0.2416  0.0626 -0.3205
   26POPC   C1A  122   3.021   6.690   4.970 -0.1305 -0.1438 -0.3509
   26POPC   D2A  123   2.982   6.542   4.573  0.0838 -0.1714 -0.0056
   26POPC   C3A  124   3.217   6.135   4.597 -0.0307 -0.1408  0.2671
   26POPC   C4A  125   3.611   5.906   4.706 -0.0376 -0.1421 -0.1065
   26POPC   C1B  126   2.513   6.965   4.690 -0.3478 -0.2752  0.0076
   26POPC   C2B  127   2.530   7.112   4.189 -0.1634 -0.2777 -0.2343
   26POPC   C3B  128   2.247   6.931   3.881  0.1006 -0.0534  0.1005
   26POPC   C4B  129   2.065   7.011   3.469  0.0806  0.1393  0.0249
   27POPC   NC3  130   6.748   6.997   5.388  0.1584  0.1123 -0.1771
   27POPC   PO4  131   6.350   7.031   5.432  0.0940  0.3031 -0.2753
   27POPC   GL1  132   6.320   6.909   5.094 -0.0689  0.0013  0.0903
   27POPC   GL2  133   6.519   7.053   4.885 -0.2025 -0.3577 -0.1391
   27POPC   C1A  134   6.329   6.484   4.843 -0.2796 -0.1885  0.0013
   27POPC   D2A  135   6.505   6.056   4.941 -0.1490  0.3414  0.1962
   27POPC   C3A  136   6.708   5.958   4.529 -0.2590  0.2611 -0.0037
   27POPC   C4A  137   6.959   6.109   4.154 -0.0955  0.2587 -0.1696
   27POPC   C1B  138   6.773   7.101   4.537  0.0177 -0.2308  0.1569
   27POPC   C2B  139   6.975   7.256   4.158 -0.0513 -0.0073 -0.0409
   27POPC   C3B  140   7.271   6.984   3.876  0.0759  0.1031  0.0248
   27POPC   C4B  141   7.422   6.920   3.467  0.2135  0.1428  0.0947
   28POPC   NC3  142   1.720   2.772   5.662 -0.0671  0.2964 -0.1211
   28POPC   PO4  143   1.940   3.130   5.666 -0.1106 -0.1228 -0.1229
   28POPC   GL1  144   1.927   3.107   5.324 -0.0977 -0.1312 -0.6162
   28POPC   GL2  145   1.665   2.997   5.212 -0.0200 -0.3432  0.2421
   28POPC   C1A  146   2.195   2.936   4.981  0.2401 -0.0112  0.2045
   28POPC   D2A  147   2.432   2.890   4.583  0.1094 -0.0495 -0.0540
   28POPC   C3A  148   2.282   3.237   4.343 -0.0021 -0.1233 -0.2507
   28POPC   C4A  149   2.463   3.478   3.989 -0.0552 -0.0170 -0.1999
   28POPC   C1B  150   1.291   2.896   4.963  0.2738  0.1834  0.5031
   28POPC   C2B  151   1.357   2.749   4.544  0.2147 -0.0399  0.3213
   28POPC   C3B  152   1.389   2.607   4.115  0.0786 -0.3305  0.0324
   28POPC   C4B  153   1.272   2.528   3.694  0.1497  0.2830 -0.1618
   29POPC   NC3  154   0.044   5.601   5.454 -0.3182 -0.2849 -0.0909
   29POPC   PO4  155   0.271   5.792   5.648 -0.0394 -0.3931 -0.0535
   29POPC   GL1  156   0.513   5.770   5.327  0.2229 -0.0162  0.2918
   29POPC   GL2  157   0.732   5.964   5.216  0.0112  0.3971 -0.5650
   29POPC   C1A  158   0.290   5.679   4.893  0.3091  0.0484  0.1172
   29POPC   D2A  159   0.051   5.555   4.528 -0.2916 -0.0140 -0.1708
   29POPC   C3A  160   0.084   5.944   4.301  0.0465 -0.0500  0.3237
   29POPC   C4A  161  -0.162   6.189   3.991  0.0799  0.2239  0.0101
   29POPC   C1B  162   0.815   5.712   4.871  0.0653 -0.1166 -0.0935
   29POPC   C2B  163   0.582   5.738   4.488  0.1910 -0.2086  0.0735
   29POPC   C3B  164   0.384   5.432   4.199  0.1225 -0.3682  0.0100
   29POPC   C4B  165   0.012   5.135   4.128 -0.0567 -0.3120  0.0646
   30POPC   NC3  166   4.766   8.094   5.456  0.1085  0.2068 -0.0726
   30POPC   PO4  167   4.671   8.459   5.436  0.0480  0.5661 -0.1099
   30POPC   GL1  168   4.464   8.635   5.076 -0.0453  0.1410  0.5136
   30POPC   GL2  169   4.252   8.501   5.207 -0.1820 -0.2242 -0.1451
   30POPC   C1A  170   4.502   8.385   4.652  0.4989  0.0976  0.0622
   30POPC   D2A  171   4.404   8.501   4.214 -0.0506  0.2572  0.0818
   30POPC   C3A  172   4.036   8.640   4.109 -0.0072 -0.1235  0.0560
   30POPC   C4A  173   3.573   8.566   4.050  0.0303  0.0266 -0.1036
   30POPC   C1B  174   4.011   8.409   4.861 -0.0752 -0.1554  0.1615
   30POPC   C2B  175   3.665   8.281   4.583  0.1245  0.1354  0.0884
   30POPC   C3B  176   3.426   8.170   4.255 -0.1580 -0.1338 -0.2014
   30POPC   C4B  177   2.959   8.290   4.188 -0.0903  0.2929 -0.2842
   31POPC   NC3  178   6.869   1.448   4.965 -0.0953  0.0198  0.3053
   31POPC   PO4  179   6.852   1.842   5.049  0.2367  0.2062 -0.1974
   31POPC   GL1  180   6.649   1.751   4.711 -0.1918  0.2488 -0.0409
   31POPC   GL2  181   6.362   1.640   4.644  0.0262 -0.1171  0.0620
   31POPC   C1A  182   6.763   1.510   4.375 -0.4143 -0.0562 -0.0015
   31POPC   D2A  183   6.755   1.618   3.936 -0.0991  0.0942  0.1330
   31POPC   C3A  184   6.394   1.502   3.729 -0.3007 -0.1325  0.3231
   31POPC   C4A  185   6.146   1.148   3.643 -0.1629  0.0346  0.0535
   31POPC   C1B  186   6.279   1.768   4.158 -0.1224  0.1342 -0.0650
   31POPC   C2B  187   5.935   2.025   4.026 -0.4213 -0.2137  0.0016
   31POPC   C3B  188   5.669   1.934   3.650  0.0411 -0.3964  0.0465
   31POPC   C4B  189   5.468   1.743   3.302  0.0061  0.0295  0.0614
   32POPC   NC3  190   7.555   0.741   5.060 -0.3201 -0.3853  0.2625
   32POPC   PO4  191   7.210   0.676   5.211  0.1221 -0.2563 -0.1563
   32POPC   GL1  192   7.198   0.545   4.800  0.0858  0.0375  0.4692
   32POPC   GL2  193   7.134   0.786   4.710 -0.1008  0.0130  0.1209
   32POPC   C1A  194   7.337   0.305   4.435 -0.0437  0.1427  0.0756
   32POPC   D2A  195   7.323  -0.048   4.173 -0.0897  0.1129  0.0438
   32POPC   C3A  196   7.733  -0.302   4.184  0.0314  0.0706 -0.5283
   32POPC   C4A  197   7.960  -0.633   4.034  0.0464  0.2272  0.2977
   32POPC   C1B  198   7.507   0.783   4.436  0.0336 -0.0041  0.0173
   32POPC   C2B  199   7.765   0.698   4.058  0.1375 -0.2390 -0.1940
   32POPC   C3B  200   8.111   0.363   3.856  0.1819 -0.0038 -0.3154
   32POPC   C4B  201   8.169   0.132   3.475  0.3158  0.0070 -0.0258
   33POPC   NC3  202   0.477   2.525   5.894 -0.2417  0.2575  0.2859
   33POPC   PO4  203   0.284   2.396   5.562 -0.2149 -0.2561  0.3629
   33POPC   GL1  204   0.510   2.279   5.319  0.1025 -0.0373  0.1647
   33POPC   GL2  205   0.594   1.995   5.326 -0.2051 -0.0334 -0.2546
   33POPC   C1A  206   0.496   2.542   4.927  0.1289  0.1152 -0.1314
   33POPC   D2A  207   0.312   2.900   4.684  0.1073 -0.0603 -0.1628
   33POPC   C3A  208  -0.006   3.044   4.396 -0.3887  0.0820  0.0263
   33POPC   C4A  209  -0.306   3.215   4.126 -0.2356 -0.0177 -0.1448
   33POPC   C1B  210   0.291   2.034   5.005 -0.0820  0.1437  0.0283
   33POPC   C2B  211   0.278   1.807   4.640 -0.3234 -0.0830 -0.0476
   33POPC   C3B  212   0.647   1.714   4.400  0.2334 -0.1681  0.0540
   33POPC   C4B  213   1.061   1.711   4.206 -0.1393  0.0549 -0.0259
   34POPC   NC3  214   8.013   0.130   5.680  0.1816 -0.2491 -0.1877
   34POPC   PO4  215   7.986   0.187   5.287 -0.0299  0.0173 -0.1072
   34POPC   GL1  216   8.166   0.014   4.930  0.1640  0.2116 -0.3986
   34POPC   GL2  217   8.005   0.181   4.735 -0.1312  0.0759 -0.2639
   34POPC   C1A  218   8.224  -0.318   4.643  0.1942  0.2055  0.2176
   34POPC   D2A  219   8.456  -0.538   4.289 -0.0314  0.1230  0.2754
   34POPC   C3A  220   8.359  -0.941   4.368  0.2824  0.4069  0.2985
   34POPC   C4A  221   8.085  -1.223   4.580  0.2269  0.0178  0.0287
   34POPC   C1B  222   7.849   0.128   4.322 -0.0747 -0.3580  0.0525
   34POPC   C2B  223   7.675   0.089   3.863 -0.1424 -0.0637 -0.0292
   34POPC   C3B  224   7.711   0.273   3.443  0.1855  0.2819  0.0661
   34POPC   C4B  225   7.719   0.119   3.016  0.1371  0.0768  0.3080
   35POPC   NC3  226   3.857   2.627   5.675  0.2231 -0.4579  0.1215
   35POPC   PO4  227   3.461   2.521   5.618  0.1551  0.0714 -0.2031
   35POPC   GL1  228   3.634   2.446   5.210  0.1998  0.0788  0.0720
   35POPC   GL2  229   3.337   2.359   5.134 -0.1198  0.3442 -0.1762
   35POPC   C1A  230   3.838   2.506   4.781  0.0321  0.2437 -0.1308
   35POPC   D2A  231   3.808   2.787   4.393  0.2297 -0.0590 -0.3863
   35POPC   C3A  232   3.869   2.638   3.994  0.0902 -0.1572 -0.1883
   35POPC   C4A  233   4.173   2.554   3.679  0.2557 -0.0458 -0.2310
   35POPC   C1B  234   3.290   2.517   4.684  0.0157  0.3458  0.4399
   35POPC   C2B  235   3.338   2.580   4.242 -0.1483  0.0334 -0.0561
   35POPC   C3B  236   3.363   2.575   3.812 -0.1392  0.3218 -0.2059
   35POPC   C4B  237   3.513   2.769   3.407  0.2069  0.2060  0.1100
   36POPC   NC3  238   8.466   4.929   5.771 -0.1722  0.0916  0.2514
   36POPC   PO4  239   8.267   5.215   5.739 -0.2269  0.1657 -0.1431
   36POPC   GL1  240   8.199   5.265   5.389 -0.0768 -0.0324 -0.2094
   36POPC   GL2  241   8.067   5.088   5.243 -0.0844 -0.0656  0.0101
   36POPC   C1A  242   8.438   5.265   4.972 -0.1761 -0.0180  0.1329
   36POPC   D2A  243   8.401   5.051   4.580  0.0765 -0.2255  0.0460
   36POPC   C3A  244   8.657   5.104   4.213  0.1602 -0.1910  0.0509
   36POPC   C4A  245   8.460   5.367   3.819 -0.0723  0.1717  0.0235
   36POPC   C1B  246   7.999   4.887   4.841  0.2418  0.1334  0.0004
   36POPC   C2B  247   7.856   4.835   4.447  0.1585  0.1628 -0.0359
   36POPC   C3B  248   7.575   4.914   4.142 -0.0147 -0.2029  0.0065
   36POPC   C4B  249   7.176   4.881   4.099  0.0414  0.0174 -0.0818
   37POPC   NC3  250   7.719   3.499   5.571  0.0028 -0.1579 -0.0569
   37POPC   PO4  251   8.071   3.723   5.545  0.3037 -0.0863 -0.0137
   37POPC   GL1  252   7.996   3.753   5.118  0.3275  0.1347 -0.0176
   37POPC   GL2  253   8.274   3.715   5.000  0.2284 -0.1022  0.1290
   37POPC   C1A  254   7.908   3.925   4.665  0.2402 -0.1683 -0.0685
   37POPC   D2A  255   7.770   4.057   4.252  0.3062  0.0044  0.1105
   37POPC   C3A  256   7.850   3.991   3.781  0.0371 -0.3478  0.0052
   37POPC   C4A  257   7.830   3.925   3.351 -0.0300  0.1684 -0.2432
   37POPC   C1B  258   8.632   3.613   4.841 -0.2477 -0.1717  0.0249
   37POPC   C2B  259   8.992   3.549   4.514  0.0043 -0.0240 -0.0629
   37POPC   C3B  260   9.160   3.567   4.087 -0.3452 -0.1699  0.0063
   37POPC   C4B  261   9.119   3.333   3.698  0.1502  0.0283  0.0390
   38POPC   NC3  262   4.274   7.178   5.338 -0.2146 -0.1837 -0.2663
   38POPC   PO4  263   3.874   7.089   5.265  0.1819  0.0900  0.1826
   38POPC   GL1  264   3.915   7.225   5.006 -0.0703  0.1608 -0.0180
   38POPC   GL2  265   3.763   7.084   4.717 -0.0786 -0.0164  0.1544
   38POPC   C1A  266   4.040   7.451   4.580  0.0622 -0.0593  0.0049
   38POPC   D2A  267   4.022   7.452   4.094  0.2532 -0.1497 -0.0944
   38POPC   C3A  268   3.884   6.972   3.966 -0.0650 -0.2652 -0.3978
   38POPC   C4A  269   3.455   6.823   3.834  0.3781  0.0756  0.3118
   38POPC   C1B  270   3.568   7.294   4.280  0.1393  0.0284 -0.2807
   38POPC   C2B  271   3.393   7.332   3.818  0.0867  0.0826 -0.0410
   38POPC   C3B  272   3.370   7.290   3.341 -0.0181 -0.3133  0.2104
   38POPC   C4B  273   3.579   7.162   2.998  0.0349 -0.2286 -0.0538
   39POPC   NC3  274   7.813   4.934   5.827  0.0751  0.0872  0.0020
   39POPC   PO4  275   7.441   4.951   5.686 -0.0287 -0.0965  0.0274
   39POPC   GL1  276   7.544   4.983   5.373  0.1488  0.2025  0.2761
   39POPC   GL2  277   7.720   4.650   5.299  0.0401  0.1505  0.5827
   39POPC   C1A  278   7.537   5.103   4.897  0.3478 -0.3640 -0.3518
   39POPC   D2A  279   7.374   5.210   4.475  0.2324 -0.2342  0.2283
   39POPC   C3A  280   7.619   5.464   4.149 -0.2551  0.1703 -0.2428
   39POPC   C4A  281   7.568   5.558   3.702 -0.4905  0.2979 -0.1562
   39POPC   C1B  282   8.047   4.343   5.119  0.1232 -0.0598  0.1269
   39POPC   C2B  283   8.303   4.211   4.772 -0.3352 -0.1261 -0.2417
   39POPC   C3B  284   8.427   3.929   4.499 -0.3568  0.0784  0.0870
   39POPC   C4B  285   8.626   3.737   4.177 -0.4538  0.0139 -0.2022
   40POPC   NC3  286   4.556   3.169   5.021 -0.0584  0.0854 -0.3022
   40POPC   PO4  287   4.751   3.472   5.088  0.0210 -0.2619  0.0048
   40POPC   GL1  288   4.631   3.601   4.784 -0.2697 -0.0924 -0.2693
   40POPC   GL2  289   4.733   3.792   4.676  0.0549 -0.0120  0.1444
   40POPC   C1A  290   4.321   3.577   4.408 -0.0910  0.2015  0.0697
   40POPC   D2A  291   4.042   3.766   4.027  0.1880  0.2097  0.4313
   40POPC   C3A  292   3.609   3.648   3.974  0.2116  0.0150  0.2538
   40POPC   C4A  293   3.242   3.689   3.766 -0.2055 -0.0840 -0.2821
   40POPC   C1B  294   4.791   3.488   4.362 -0.1023 -0.1056  0.0495
   40POPC   C2B  295   4.523   3.246   4.041 -0.2002  0.2628  0.1654
   40POPC   C3B  296   4.279   3.088   3.663 -0.2288  0.0955 -0.2489
   40POPC   C4B  297   3.827   3.056   3.664  0.0051 -0.1870 -0.4440
   41POPC   NC3  298   8.575   6.977   5.742 -0.1046 -0.2583 -0.3550
   41POPC   PO4  299   8.187   6.900   5.803  0.1098 -0.0532 -0.1628
   41POPC   GL1  300   8.200   6.836   5.403 -0.0014  0.0157  0.3485
   41POPC   GL2  301   8.367   7.115   5.356 -0.1922 -0.0111  0.3017
   41POPC   C1A  302   7.851   6.865   5.098  0.1974 -0.1932  0.1246
   41POPC   D2A  303   7.682   6.676   4.744 -0.0592  0.0092  0.1544
   41POPC   C3A  304   7.989   6.737   4.376  0.2189 -0.1381 -0.2425
   41POPC   C4A  305   8.060   7.152   4.137 -0.2161  0.2741  0.1106
   41POPC   C1B  306   8.168   7.380   5.043  0.1064 -0.0571  0.0514
   41POPC   C2B  307   8.040   7.301   4.650  0.2505  0.2501  0.2014
   41POPC   C3B  308   7.659   7.066   4.513  0.0257 -0.0424  0.0940
   41POPC   C4B  309   7.582   6.762   4.142  0.3290 -0.2187 -0.2866
   42POPC   NC3  310   4.583   7.252   5.845 -0.2781  0.0606  0.0022
   42POPC   PO4  311   4.636   7.546   5.584  0.0009  0.3275 -0.0263
   42POPC   GL1  312   4.492   7.644   5.258  0.2207  0.3005 -0.0986
   42POPC   GL2  313   4.721   7.666   5.036 -0.1464  0.0345 -0.0812
   42POPC   C1A  314   4.410   7.343   4.876 -0.1486 -0.1200  0.0603
   42POPC   D2A  315   4.326   6.945   4.732  0.1572  0.0753 -0.0034
   42POPC   C3A  316   4.030   6.821   4.387  0.3440 -0.2100  0.0057
   42POPC   C4A  317   3.662   6.518   4.348 -0.0218 -0.0843 -0.1588
   42POPC   C1B  318   4.809   7.489   4.547  0.2442  0.1925  0.1983
   42POPC   C2B  319   4.438   7.401   4.310  0.2373 -0.0350 -0.3021
   42POPC   C3B  320   4.447   7.045   4.059 -0.0579 -0.0196 -0.1822
   42POPC   C4B  321   4.539   6.629   3.897  0.0271 -0.3159  0.1271
   43POPC   NC3  322   8.611   1.381   5.453  0.1115  0.0471  0.0634
   43POPC   PO4  323   8.873   1.512   5.697  0.1327 -0.2279 -0.1883
   43POPC   GL1  324   9.105   1.514   5.387 -0.0920 -0.2113  0.2483
   43POPC   GL2  325   8.908   1.734   5.230  0.3700 -0.2071  0.1140
   43POPC   C1A  326   9.260   1.407   4.957  0.3780 -0.3410 -0.0188
   43POPC   D2A  327   9.567   1.310   4.646 -0.0875 -0.0858 -0.0750
   43POPC   C3A  328   9.695   0.893   4.512 -0.0636 -0.1782  0.0145
   43POPC   C4A  329   9.739   0.439   4.514 -0.1862 -0.1894 -0.0141
   43POPC   C1B  330   8.809   1.489   4.794 -0.1575  0.1707 -0.1006
   43POPC   C2B  331   9.124   1.470   4.444  0.1153 -0.0313 -0.5110
   43POPC   C3B  332   9.335   1.644   4.077  0.0003 -0.0628 -0.1340
   43POPC   C4B  333   9.816   1.676   3.906 -0.0205  0.3201 -0.2812
   44POPC   NC3  334   1.947   6.077   5.597  0.0266 -0.0109  0.0528
   44POPC   PO4  335   1.633   5.792   5.599 -0.1642  0.1973 -0.1293
   44POPC   GL1  336   1.719   5.685   5.342 -0.0256  0.2707  0.1513
   44POPC   GL2  337   2.018   5.679   5.273  0.0201 -0.1798  0.2482
   44POPC   C1A  338   1.329   5.646   5.084 -0.1261 -0.0380  0.1891
   44POPC   D2A  339   1.327   5.819   4.615  0.3284  0.0500 -0.1053
   44POPC   C3A  340   1.248   5.682   4.176 -0.2077 -0.1277 -0.2368
   44POPC   C4A  341   1.212   5.622   3.718 -0.0692  0.0539  0.0413
   44POPC   C1B  342   1.826   5.655   4.866 -0.1332 -0.0654 -0.1134
   44POPC   C2B  343   1.752   5.618   4.402 -0.2208  0.2692  0.0792
   44POPC   C3B  344   1.699   5.894   4.010  0.0515  0.1579 -0.1961
   44POPC   C4B  345   1.992   5.997   3.657 -0.3984  0.3283  0.2876
   45POPC   NC3  346   8.289   1.026   5.916  0.0715  0.3243  0.0999
   45POPC   PO4  347   8.247   0.881   5.550  0.0218  0.0923  0.0008
   45POPC   GL1  348   8.060   0.653   5.203 -0.1575 -0.0121  0.1670
   45POPC   GL2  349   7.964   0.970   5.163 -0.2552  0.1344 -0.2266
   45POPC   C1A  350   8.233   0.598   4.783 -0.2063  0.2114 -0.1204
   45POPC   D2A  351   8.265   0.469   4.355 -0.0902  0.1323  0.0812
   45POPC   C3A  352   8.578   0.390   3.969 -0.0349 -0.1589  0.1669
   45POPC   C4A  353   8.497   0.513   3.523  0.0048  0.1959  0.0368
   45POPC   C1B  354   7.953   1.013   4.722  0.0225  0.0006  0.1360
   45POPC   C2B  355   8.055   1.288   4.357 -0.0846 -0.1523 -0.3679
   45POPC   C3B  356   8.181   1.465   3.968  0.1115 -0.2108 -0.0809
   45POPC   C4B  357   8.196   1.243   3.642  0.1752  0.2426  0.1309
   46POPC   NC3  358   5.155   7.566   5.283  0.4187 -0.0653  0.2801
   46POPC   PO4  359   5.366   7.219   5.335 -0.1310  0.0297 -0.3571
   46POPC   GL1  360   5.345   6.914   5.149 -0.0133  0.4569  0.1444
   46POPC   GL2  361   5.510   6.952   4.912  0.0059 -0.0842 -0.2095
   46POPC   C1A  362   5.039   6.690   4.823  0.0650 -0.0986  0.1444
   46POPC   D2A  363   4.737   6.856   4.504  0.1064 -0.0815 -0.1700
   46POPC   C3A  364   4.951   6.839   4.131 -0.1401 -0.1770 -0.1766
   46POPC   C4A  365   5.377   6.882   4.029  0.0971  0.1657 -0.0215
   46POPC   C1B  366   5.612   6.970   4.452  0.0534  0.2198 -0.0263
   46POPC   C2B  367   5.932   6.965   4.145 -0.0305  0.1215  0.0761
   46POPC   C3B  368   6.186   7.185   3.809  0.0844 -0.0378  0.1530
   46POPC   C4B  369   6.457   7.562   3.802  0.1183 -0.2185  0.0565
   47POPC   NC3  370   0.643   2.690   5.411  0.0448  0.2535 -0.2147
   47POPC   PO4  371   0.846   2.396   5.582  0.1385  0.0819  0.0794
   47POPC   GL1  372   0.907   2.340   5.147 -0.0731  0.1688  0.2863
   47POPC   GL2  373   0.999   2.515   4.981 -0.0539  0.1136 -0.0211
   47POPC   C1A  374   0.688   2.128   4.774  0.0548  0.2485  0.3179
   47POPC   D2A  375   0.291   2.302   4.534  0.1724 -0.1426  0.2572
   47POPC   C3A  376   0.352   2.643   4.230  0.1124  0.1918 -0.4124
   47POPC   C4A  377   0.119   2.956   3.950 -0.1297  0.0284 -0.2849
   47POPC   C1B  378   0.882   2.609   4.537 -0.2012  0.0811  0.4538
   47POPC   C2B  379   0.915   2.636   4.085 -0.0400  0.0011  0.2188
   47POPC   C3B  380   0.673   2.610   3.711 -0.0765  0.2271 -0.3247
   47POPC   C4B  381   0.256   2.544   3.713 -0.0597 -0.0702 -0.2412
   48POPC   NC3  382   5.539   0.107   5.542  0.1019  0.0876  0.0343
   48POPC   PO4  383   5.516  -0.237   5.362  0.1029 -0.1002 -0.1882
   48POPC   GL1  384   5.300  -0.040   5.140 -0.0331  0.0079 -0.1989
   48POPC   GL2  385   5.261   0.279   5.122 -0.1154  0.2025  0.0221
   48POPC   C1A  386   5.110  -0.132   4.717 -0.1363 -0.3229  0.3097
   48POPC   D2A  387   5.134  -0.255   4.260 -0.0456  0.3554 -0.1936
   48POPC   C3A  388   5.062  -0.334   3.837  0.0990  0.1176 -0.1986
   48POPC   C4A  389   5.005  -0.710   3.530  0.2003  0.0390  0.2098
   48POPC   C1B  390   5.019   0.392   4.711  0.1023 -0.1250  0.0153
   48POPC   C2B  391   4.832   0.165   4.344 -0.1132 -0.1808 -0.1307
   48POPC   C3B  392   4.682  -0.256   4.182  0.3001 -0.3023  0.0674
   48POPC   C4B  393   4.530  -0.432   3.752 -0.1001  0.0770  0.0709
   49POPC   NC3  394   6.131   9.113   5.282 -0.0819  0.1655  0.2404
   49POPC   PO4  395   5.891   9.414   5.212  0.2522 -0.0025 -0.2802
   49POPC   GL1  396   5.631   9.520   4.949 -0.7031  0.2684  0.3850
   49POPC   GL2  397   5.849   9.592   4.726  0.3554 -0.2476 -0.0751
   49POPC   C1A  398   5.442   9.349   4.571  0.1837  0.0062 -0.3941
   49POPC   D2A  399   5.414   9.205   4.049  0.2901 -0.1809 -0.3064
   49POPC   C3A  400   5.309   9.384   3.660 -0.0356 -0.4148 -0.1412
   49POPC   C4A  401   5.219   9.889   3.569 -0.3913  0.2617  0.2465
   49POPC   C1B  402   5.899   9.592   4.280  0.3751 -0.0978  0.1413
   49POPC   C2B  403   5.861   9.346   3.934 -0.2610  0.2331  0.1907
   49POPC   C3B  404   5.772   9.396   3.516  0.0976  0.0825  0.1209
   49POPC   C4B  405   5.615   9.736   3.234  0.2914 -0.0869 -0.2688
   50POPC   NC3  406   0.790   8.645   4.949  0.0236 -0.1326  0.0436
   50POPC   PO4  407   0.700   8.303   5.036  0.0011  0.0565  0.3213
   50POPC   GL1  408   0.871   8.142   4.733  0.1622 -0.1236 -0.0691
   50POPC   GL2  409   0.760   8.002   4.586 -0.1688 -0.1544 -0.0276
   50POPC   C1A  410   1.297   7.989   4.697  0.0437  0.1794  0.1963
   50POPC   D2A  411   1.715   8.030   4.457 -0.1273  0.2389 -0.1488
   50POPC   C3A  412   1.900   8.130   4.018  0.1722  0.0648  0.2144
   50POPC   C4A  413   2.297   8.194   3.875 -0.0338  0.3397 -0.0975
   50POPC   C1B  414   0.955   7.971   4.176  0.0081 -0.2311 -0.2500
   50POPC   C2B  415   1.077   8.136   3.732 -0.1521  0.0295  0.1312
   50POPC   C3B  416   1.297   8.356   3.353  0.2050  0.1144 -0.2867
   50POPC   C4B  417   1.550   8.304   3.011  0.1244 -0.3688 -0.2369
   51POPC   NC3  418   1.226   3.693   5.453  0.0320  0.0107 -0.0156
   51POPC   PO4  419   1.485   3.978   5.554 -0.1975  0.0133  0.0306
   51POPC   GL1  420   1.564   4.109   5.255  0.2350 -0.3121 -0.0046
   51POPC   GL2  421   1.274   4.279   5.226  0.1033  0.1418 -0.0729
   51POPC   C1A  422   1.374   4.084   4.815  0.1467  0.2146  0.0906
   51POPC   D2A  423   1.468   4.250   4.453 -0.0119  0.0604  0.0117
   51POPC   C3A  424   1.230   4.082   4.056  0.1191  0.2179 -0.0423
   51POPC   C4A  425   1.176   4.172   3.613  0.2395 -0.3287 -0.4096
   51POPC   C1B  426   1.063   4.462   4.813 -0.1950  0.0015  0.0153
   51POPC   C2B  427   1.078   4.582   4.345 -0.0147  0.2421 -0.0768
   51POPC   C3B  428   0.851   4.357   4.029  0.2324 -0.0519  0.1646
   51POPC   C4B  429   0.768   3.974   3.801  0.2896 -0.1569 -0.2132
   52POPC   NC3  430   3.568   8.219   5.123  0.0501  0.0175  0.0515
   52POPC   PO4  431   3.334   7.922   5.193  0.2238 -0.0039 -0.3486
   52POPC   GL1  432   3.341   7.982   4.752  0.0856  0.0418 -0.0395
   52POPC   GL2  433   3.075   8.174   4.666 -0.2868  0.1239 -0.2704
   52POPC   C1A  434   3.145   7.777   4.363  0.0507  0.1760 -0.3630
   52POPC   D2A  435   3.219   7.822   3.933  0.1957  0.1979  0.1820
   52POPC   C3A  436   3.009   7.588   3.569 -0.5038 -0.0538 -0.1544
   52POPC   C4A  437   2.918   7.380   3.132  0.1603  0.0048 -0.4241
   52POPC   C1B  438   3.187   8.560   4.537  0.1778  0.1393 -0.2718
   52POPC   C2B  439   3.057   8.769   4.153  0.2443 -0.2716  0.0569
   52POPC   C3B  440   3.068   8.976   3.757 -0.1939  0.2220 -0.3067
   52POPC   C4B  441   3.234   9.024   3.325 -0.0024 -0.2869 -0.2307
   53POPC   NC3  442   6.182   2.637   5.262 -0.0082  0.1748 -0.0078
   53POPC   PO4  443   6.082   2.262   5.269 -0.0053  0.4432  0.2349
   53POPC   GL1  444   5.851   2.196   4.869 -0.0205 -0.3030  0.1378
   53POPC   GL2  445   5.556   2.268   4.759 -0.0882 -0.2268  0.0258
   53POPC   C1A  446   5.889   1.952   4.511  0.0499  0.1137 -0.3313
   53POPC   D2A  447   5.738   1.593   4.252 -0.2539  0.4193 -0.2577
   53POPC   C3A  448   5.839   1.510   3.798 -0.0955  0.0358 -0.1638
   53POPC   C4A  449   5.746   1.358   3.415  0.1654 -0.0427  0.0016
   53POPC   C1B  450   5.691   2.439   4.360  0.1233  0.0188  0.0166
   53POPC   C2B  451   5.489   2.339   3.975 -0.0590  0.1990 -0.0520
   53POPC   C3B  452   5.144   2.131   3.711  0.0325  0.3571 -0.3100
   53POPC   C4B  453   4.902   1.802   3.571  0.4007  0.0457 -0.4769
   54POPC   NC3  454   8.787   8.735   5.481  0.1650  0.3575 -0.1846
   54POPC   PO4  455   8.398   8.554   5.570 -0.2049 -0.0111  0.2865
   54POPC   GL1  456   8.390   8.543   5.210  0.0004  0.1018  0.1175
   54POPC   GL2  457   8.130   8.606   5.153  0.0992  0.2376  0.1193
   54POPC   C1A  458   8.659   8.372   4.813  0.2071 -0.2170 -0.1783
   54POPC   D2A  459   8.657   7.929   4.626 -0.3057  0.0864  0.5813
   54POPC   C3A  460   8.677   7.788   4.157  0.0740  0.0400  0.2212
   54POPC   C4A  461   8.635   7.431   3.868 -0.1840 -0.1080 -0.1820
   54POPC   C1B  462   7.705   8.591   5.014 -0.0902  0.0338  0.0735
   54POPC   C2B  463   7.270   8.642   4.927 -0.0410  0.1828  0.2785
   54POPC   C3B  464   6.867   8.660   4.726  0.1040  0.1570  0.1101
   54POPC   C4B  465   6.580   8.815   4.359 -0.0614 -0.2265 -0.2190
   55POPC   NC3  466   7.638   4.184   5.377 -0.1858 -0.1824  0.1794
   55POPC   PO4  467   7.532   3.816   5.282  0.1619  0.0701 -0.1111
   55POPC   GL1  468   7.528   3.876   4.934  0.1405 -0.3603  0.1750
   55POPC   GL2  469   7.416   4.162   4.817 -0.1371  0.0795  0.0527
   55POPC   C1A  470   7.445   3.714   4.493  0.0108 -0.0524 -0.3783
   55POPC   D2A  471   7.413   3.538   4.061 -0.2332  0.4202 -0.1375
   55POPC   C3A  472   7.732   3.526   3.735  0.0452 -0.2065  0.1337
   55POPC   C4A  473   7.925   3.465   3.297 -0.0619  0.0046  0.4049
   55POPC   C1B  474   7.772   4.418   4.688 -0.0925  0.0203  0.1401
   55POPC   C2B  475   8.087   4.380   4.339 -0.1859 -0.1254 -0.5344
   55POPC   C3B  476   8.312   4.750   4.146  0.1185  0.1053  0.1518
   55POPC   C4B  477   8.065   5.186   4.159  0.0765 -0.2460 -0.0903
   56POPC   NC3  478   2.721   3.361   5.333 -0.0842  0.4483 -0.0265
   56POPC   PO4  479   2.661   3.724   5.394  0.1057 -0.4221  0.1803
   56POPC   GL1  480   2.461   3.662   5.015  0.1621 -0.4608  0.0782
   56POPC   GL2  481   2.310   3.423   4.874 -0.0022  0.1561 -0.0493
   56POPC   C1A  482   2.624   3.629   4.576  0.0142  0.1777  0.2780
   56POPC   D2A  483   2.896   3.720   4.201 -0.1701  0.5122  0.1142
   56POPC   C3A  484   3.237   3.382   4.180 -0.1511 -0.0828 -0.0084
   56POPC   C4A  485   3.530   3.002   4.066 -0.0267  0.1627  0.0132
   56POPC   C1B  486   1.885   3.359   4.704 -0.1953 -0.0092 -0.2799
   56POPC   C2B  487   1.566   3.629   4.469  0.0980  0.2370  0.2733
   56POPC   C3B  488   1.205   3.553   4.212  0.1946  0.0873 -0.0396
   56POPC   C4B  489   1.092   3.599   3.768  0.2176  0.1715 -0.0984
   57POPC   NC3  490   2.462   5.916   5.247 -0.3291 -0.2094  0.1795
   57POPC   PO4  491   2.348   5.775   5.617  0.1894  0.2083  0.3602
   57POPC   GL1  492   2.452   5.473   5.195 -0.1201  0.0046 -0.0161
   57POPC   GL2  493   2.544   5.294   5.276  0.1477  0.0576 -0.2690
   57POPC   C1A  494   2.566   5.456   4.735 -0.1987  0.2537 -0.2208
   57POPC   D2A  495   2.657   5.508   4.370  0.2006 -0.0750  0.5648
   57POPC   C3A  496   3.094   5.760   4.207 -0.0385  0.0099 -0.0843
   57POPC   C4A  497   3.264   6.202   4.130  0.1249  0.0835  0.0687
   57POPC   C1B  498   2.907   5.102   5.018  0.0158 -0.2098 -0.3108
   57POPC   C2B  499   2.982   5.119   4.544  0.1892 -0.3418  0.1219
   57POPC   C3B  500   3.063   5.249   4.148  0.0560 -0.1365  0.2564
   57POPC   C4B  501   3.349   5.456   3.885  0.1476 -0.1460 -0.2376
   58POPC   NC3  502   8.439   4.082   5.400 -0.0835  0.2417  0.4113
   58POPC   PO4  503   8.563   4.473   5.494 -0.1313 -0.2252 -0.0916
   58POPC   GL1  504   8.446   4.848   5.326 -0.1435  0.0930  0.2203
   58POPC   GL2  505   8.497   4.802   5.021 -0.0884 -0.0923 -0.1869
   58POPC   C1A  506   8.801   5.202   5.360  0.0423  0.0333  0.2926
   58POPC   D2A  507   9.085   5.297   5.000 -0.1060  0.2388  0.0542
   58POPC   C3A  508   8.955   4.997   4.658  0.1135  0.1144 -0.2054
   58POPC   C4A  509   8.998   4.734   4.302  0.0797  0.0749 -0.0834
   58POPC   C1B  510   8.577   4.604   4.617 -0.3135  0.1093  0.0197
   58POPC   C2B  511   8.614   4.319   4.271  0.3929  0.0323 -0.1349
   58POPC   C3B  512   8.535   4.125   3.866  0.1172 -0.3035  0.2632
   58POPC   C4B  513   8.791   3.801   3.692 -0.0993 -0.0554 -0.2964
   59POPC   NC3  514   4.442   5.584   5.265 -0.0221 -0.0459 -0.0069
   59POPC   PO4  515   4.297   5.951   5.343  0.2124 -0.0621  0.0381
   59POPC   GL1  516   4.170   5.868   4.992 -0.2933 -0.0335  0.3134
   59POPC   GL2  517   3.957   5.725   4.989 -0.3106 -0.0619 -0.3942
   59POPC   C1A  518   4.404   6.084   4.608  0.1381 -0.0122  0.0490
   59POPC   D2A  519   4.392   6.475   4.412 -0.0595 -0.0763  0.1179
   59POPC   C3A  520   4.084   6.515   4.063  0.1228  0.4137  0.0066
   59POPC   C4A  521   3.751   6.417   3.724  0.2139 -0.2888 -0.2970
   59POPC   C1B  522   4.054   5.690   4.595 -0.0580  0.1409 -0.0424
   59POPC   C2B  523   4.270   5.599   4.178 -0.2361 -0.2998  0.3743
   59POPC   C3B  524   4.489   5.310   3.874 -0.2358  0.1199  0.0646
   59POPC   C4B  525   4.658   4.846   3.851 -0.0918 -0.1397  0.4334
   60POPC   NC3  526   5.602   6.595   5.339  0.2089 -0.0288  0.1128
   60POPC   PO4  527   5.878   6.864   5.233 -0.0972 -0.1746 -0.1334
   60POPC   GL1  528   5.910   6.699   4.833 -0.6351 -0.0742  0.0958
   60POPC   GL2  529   6.061   6.885   4.695 -0.0069 -0.0946 -0.0252
   60POPC   C1A  530   6.018   6.424   4.503  0.2228  0.1970  0.0248
   60POPC   D2A  531   6.183   6.028   4.421 -0.0435  0.3272  0.4875
   60POPC   C3A  532   6.186   6.037   3.968 -0.5092  0.1203 -0.2401
   60POPC   C4A  533   6.537   6.206   3.681 -0.1795 -0.0515  0.2164
   60POPC   C1B  534   6.358   6.833   4.412  0.0251 -0.0125 -0.0133
   60POPC   C2B  535   6.571   6.946   4.046 -0.1250 -0.0223  0.0692
   60POPC   C3B  536   6.503   6.851   3.615 -0.2221 -0.2278  0.1412
   60POPC   C4B  537   6.408   6.641   3.262  0.2935  0.2235 -0.0750
   61POPC   NC3  538   7.205   5.695   5.570  0.0987  0.2651  0.0602
   61POPC   PO4  539   7.507   5.771   5.774 -0.2195  0.3698  0.0102
   61POPC   GL1  540   7.514   5.970   5.353  0.1592  0.2481 -0.3374
   61POPC   GL2  541   7.747   5.849   5.333  0.0716  0.2304 -0.1473
   61POPC   C1A  542   7.738   6.163   4.988 -0.0693 -0.3690  0.2489
   61POPC   D2A  543   8.104   6.281   4.680  0.2275  0.1067  0.0707
   61POPC   C3A  544   8.311   6.049   4.289  0.2682  0.1337  0.1351
   61POPC   C4A  545   8.570   5.758   4.112  0.1540  0.3371 -0.0813
   61POPC   C1B  546   7.794   5.491   5.100 -0.1424  0.0458  0.1803
   61POPC   C2B  547   7.915   5.336   4.677 -0.1274 -0.0985  0.2445
   61POPC   C3B  548   8.254   5.559   4.455  0.0150  0.1234  0.2625
   61POPC   C4B  549   8.650   5.748   4.651  0.0666 -0.3052  0.2766
   62POPC   NC3  550   3.866   4.897   5.598 -0.0121 -0.1097  0.0177
   62POPC   PO4  551   4.170   4.736   5.683  0.2401 -0.3733 -0.1688
   62POPC   GL1  552   4.156   4.713   5.233  0.1204  0.3108  0.1097
   62POPC   GL2  553   4.417   4.791   5.147 -0.2151  0.0981 -0.1698
   62POPC   C1A  554   3.734   4.599   5.108  0.0061 -0.1530  0.0234
   62POPC   D2A  555   3.277   4.542   5.027 -0.0722  0.2870 -0.0437
   62POPC   C3A  556   3.046   4.636   4.655  0.2477 -0.0867 -0.3372
   62POPC   C4A  557   2.930   4.781   4.208 -0.0881  0.2154 -0.0321
   62POPC   C1B  558   4.554   4.762   4.713 -0.0578  0.0766  0.2590
   62POPC   C2B  559   4.449   4.634   4.257  0.1630  0.0017 -0.0158
   62POPC   C3B  560   4.272   4.543   3.856  0.1645  0.1583 -0.3310
   62POPC   C4B  561   4.136   4.791   3.464 -0.0165  0.5385  0.2611
   63POPC   NC3  562   0.400   3.615   5.067 -0.0166  0.0246 -0.1523
   63POPC   PO4  563   0.665   3.346   5.126  0.1140 -0.1557  0.1958
   63POPC   GL1  564   0.717   3.452   4.733 -0.5026  0.3306  0.2901
   63POPC   GL2  565   0.736   3.145   4.641 -0.0832 -0.1690 -0.1809
   63POPC   C1A  566   0.724   3.571   4.284  0.2163 -0.0217  0.4398
   63POPC   D2A  567   0.495   3.516   3.919  0.3661  0.1409  0.1285
   63POPC   C3A  568   0.588   3.599   3.487  0.0264 -0.1407  0.0036
   63POPC   C4A  569   0.532   3.753   3.033 -0.2317  0.0953  0.0547
   63POPC   C1B  570   1.012   3.082   4.244 -0.2944 -0.1485  0.0557
   63POPC   C2B  571   1.175   3.036   3.844  0.0698 -0.3530  0.0744
   63POPC   C3B  572   1.529   2.972   3.610 -0.0127 -0.1555  0.3192
   63POPC   C4B  573   1.655   2.792   3.203  0.0155  0.2423 -0.3956
   64POPC   NC3  574   5.289   2.871   5.580  0.0973  0.2838  0.0445
   64POPC   PO4  575   5.437   3.085   5.317 -0.1428 -0.0861 -0.2474
   64POPC   GL1  576   5.430   3.174   4.943 -0.2397  0.2619  0.0222
   64POPC   GL2  577   5.204   3.387   4.918 -0.0741  0.0914  0.3347
   64POPC   C1A  578   5.424   2.934   4.536 -0.0857 -0.1542  0.3706
   64POPC   D2A  579   5.562   2.897   4.098  0.3536  0.0374 -0.1050
   64POPC   C3A  580   5.171   2.810   3.927 -0.1300  0.1544 -0.0296
   64POPC   C4A  581   4.998   2.637   3.547 -0.2631  0.2286  0.1028
   64POPC   C1B  582   5.347   3.482   4.467 -0.0647  0.3631 -0.0700
   64POPC   C2B  583   5.452   3.785   4.220  0.0261 -0.2685 -0.1491
   64POPC   C3B  584   5.419   4.185   3.934  0.2122  0.2415  0.0962
   64POPC   C4B  585   5.413   4.675   3.865 -0.1203  0.1639  0.1232
   65POPC   NC3  586   5.496   5.689   5.950 -0.0278 -0.2690 -0.1123
   65POPC   PO4  587   5.256   5.479   5.740 -0.1553  0.3958  0.0843
   65POPC   GL1  588   5.257   5.458   5.371 -0.0663 -0.3246 -0.0370
   65POPC   GL2  589   5.471   5.617   5.181 -0.3125  0.1585 -0.2659
   65POPC   C1A  590   5.058   5.634   4.999  0.1853  0.0102  0.0110
   65POPC   D2A  591   5.027   5.436   4.558 -0.0026 -0.0633  0.0294
   65POPC   C3A  592   4.598   5.266   4.441  0.0713  0.1500  0.3347
   65POPC   C4A  593   4.219   5.110   4.443  0.1402  0.5098  0.1939
   65POPC   C1B  594   5.617   5.551   4.764  0.0647  0.1180 -0.2022
   65POPC   C2B  595   5.724   5.598   4.370 -0.2850  0.0611  0.0774
   65POPC   C3B  596   5.914   5.487   3.918 -0.0331 -0.2125  0.0623
   65POPC   C4B  597   6.148   5.563   3.520 -0.2672 -0.1358  0.0639
   66POPC   NC3  598   6.525   0.583   4.672  0.0812  0.0277 -0.1994
   66POPC   PO4  599   6.258   0.796   4.867 -0.0539 -0.1825 -0.1488
   66POPC   GL1  600   6.083   0.884   4.578 -0.1434  0.1539  0.1176
   66POPC   GL2  601   5.833   1.026   4.580  0.1796  0.3373  0.0717
   66POPC   C1A  602   6.349   0.744   4.202 -0.1047  0.2611 -0.0096
   66POPC   D2A  603   6.589   0.573   3.828  0.2701  0.5765 -0.3595
   66POPC   C3A  604   6.910   0.545   3.474  0.0693  0.2633 -0.2343
   66POPC   C4A  605   7.304   0.415   3.186  0.2216  0.3066 -0.1200
   66POPC   C1B  606   5.819   1.113   4.109 -0.1936 -0.0892 -0.1895
   66POPC   C2B  607   5.505   1.100   3.738  0.1740  0.0440 -0.2173
   66POPC   C3B  608   5.227   1.293   3.438  0.2942 -0.2896  0.1372
   66POPC   C4B  609   4.945   1.316   3.088  0.3516 -0.1594  0.3176
   67POPC   NC3  610   1.718   7.251   5.634 -0.0915 -0.0311  0.0151
   67POPC   PO4  611   2.028   7.032   5.717  0.0491  0.3462  0.2088
   67POPC   GL1  612   2.107   7.025   5.313 -0.2649  0.6006 -0.0270
   67POPC   GL2  613   1.896   7.057   5.192 -0.0109  0.3265 -0.4188
   67POPC   C1A  614   2.212   7.312   4.925  0.0345  0.0587 -0.0531
   67POPC   D2A  615   2.153   7.391   4.514  0.1994 -0.2404  0.0464
   67POPC   C3A  616   2.214   7.802   4.320  0.0144 -0.1245 -0.1310
   67POPC   C4A  617   2.167   8.216   4.569  0.1877  0.1383  0.0424
   67POPC   C1B  618   2.107   6.701   4.979 -0.2145 -0.1730  0.2828
   67POPC   C2B  619   2.212   6.480   4.597  0.0579 -0.0550  0.1417
   67POPC   C3B  620   2.537   6.618   4.258  0.0282  0.2706 -0.3967
   67POPC   C4B  621   2.916   6.629   4.037  0.2863 -0.3124  0.1229
   68POPC   NC3  622   1.823   0.118   5.219 -0.0215 -0.3035 -0.3223
   68POPC   PO4  623   2.170  -0.087   5.229 -0.4651  0.3829 -0.1739
   68POPC   GL1  624   2.343  -0.182   4.922  0.0975  0.0377 -0.2670
   68POPC   GL2  625   2.412   0.142   4.806 -0.1972  0.2034 -0.0291
   68POPC   C1A  626   2.153  -0.250   4.541 -0.2784  0.1982 -0.2886
   68POPC   D2A  627   2.241  -0.276   4.098 -0.0921  0.1434 -0.2925
   68POPC   C3A  628   1.960  -0.536   3.855  0.1016 -0.0776  0.0693
   68POPC   C4A  629   1.537  -0.756   3.786  0.0345 -0.0207  0.0221
   68POPC   C1B  630   2.254   0.251   4.359 -0.3498 -0.0105 -0.1022
   68POPC   C2B  631   2.314   0.159   3.874  0.0840 -0.2096 -0.1095
   68POPC   C3B  632   2.312   0.357   3.431  0.1178 -0.0273  0.2495
   68POPC   C4B  633   2.194   0.613   3.078 -0.1199 -0.0711 -0.2307
   69POPC   NC3  634   5.763   7.918   5.440 -0.1707  0.0994  0.0802
   69POPC   PO4  635   5.970   7.994   5.112 -0.1360 -0.1801  0.1095
   69POPC   GL1  636   5.787   8.102   4.779  0.0466  0.0914 -0.0996
   69POPC   GL2  637   6.007   8.166   4.597  0.0282  0.1124 -0.0893
   69POPC   C1A  638   5.667   8.523   4.694  0.2101  0.1650  0.0550
   69POPC   D2A  639   5.646   8.851   4.378 -0.2862  0.0574 -0.1606
   69POPC   C3A  640   6.095   9.052   4.311  0.1428  0.0741  0.1170
   69POPC   C4A  641   6.376   9.399   4.121 -0.2331  0.2625 -0.0169
   69POPC   C1B  642   6.050   8.441   4.267 -0.1029  0.2862 -0.0045
   69POPC   C2B  643   6.155   8.322   3.807 -0.1069 -0.3407 -0.2036
   69POPC   C3B  644   6.008   8.492   3.413  0.1319  0.0092  0.0786
   69POPC   C4B  645   5.941   8.305   3.031 -0.1061  0.4913 -0.0388
   70POPC   NC3  646   4.844   2.390   5.345 -0.2173 -0.0342 -0.0058
   70POPC   PO4  647   4.505   2.237   5.343  0.1028 -0.0880  0.1059
   70POPC   GL1  648   4.415   2.250   4.990 -0.0572  0.2738 -0.1047
   70POPC   GL2  649   4.557   2.039   4.862 -0.2173 -0.1865  0.0469
   70POPC   C1A  650   4.336   2.653   4.713  0.1308 -0.1042  0.3784
   70POPC   D2A  651   4.292   2.778   4.243 -0.0106  0.1089 -0.2698
   70POPC   C3A  652   4.595   2.725   3.873 -0.5131 -0.0007 -0.2391
   70POPC   C4A  653   4.852   3.073   3.656  0.1585 -0.2060 -0.1543
   70POPC   C1B  654   4.130   1.982   4.646 -0.3264  0.0810 -0.0956
   70POPC   C2B  655   4.063   1.804   4.209  0.0184 -0.0004  0.2445
   70POPC   C3B  656   4.359   1.688   3.904 -0.0544  0.3526 -0.0485
   70POPC   C4B  657   4.138   1.371   3.627  0.0762  0.2928  0.1946
   71POPC   NC3  658   6.917   2.521   5.595 -0.3008 -0.1065  0.1282
   71POPC   PO4  659   6.625   2.790   5.436 -0.0097  0.0072 -0.1849
   71POPC   GL1  660   6.508   3.039   5.095  0.0324  0.0194  0.2805
   71POPC   GL2  661   6.817   3.021   5.000 -0.1951 -0.2027  0.1024
   71POPC   C1A  662   6.438   3.103   4.647  0.1881 -0.2074  0.2326
   71POPC   D2A  663   6.663   3.123   4.234  0.0963 -0.0140  0.0764
   71POPC   C3A  664   6.531   2.889   3.869 -0.0865  0.0661 -0.1529
   71POPC   C4A  665   6.255   2.904   3.503  0.0164  0.1555 -0.0224
   71POPC   C1B  666   6.848   2.840   4.593 -0.4925 -0.0607  0.1330
   71POPC   C2B  667   6.850   2.538   4.229 -0.0261  0.1267 -0.1395
   71POPC   C3B  668   6.840   2.468   3.825  0.0047 -0.0744 -0.4584
   71POPC   C4B  669   6.647   2.437   3.456  0.2100 -0.5435 -0.1051
   72POPC   NC3  670   6.364   3.846   5.416 -0.0685  0.1431  0.0340
   72POPC   PO4  671   6.081   3.574   5.536  0.3921 -0.0928  0.1074
   72POPC   GL1  672   5.873   3.535   5.179  0.0800  0.2901 -0.2147
   72POPC   GL2  673   5.623   3.585   5.230 -0.0860  0.4664  0.1951
   72POPC   C1A  674   5.890   3.364   4.742  0.2142 -0.4698  0.0129
   72POPC   D2A  675   5.886   2.869   4.613 -0.1903  0.0661  0.2520
   72POPC   C3A  676   6.098   2.865   4.197 -0.0298  0.0542 -0.0867
   72POPC   C4A  677   6.048   3.172   3.887 -0.1434  0.3196  0.4603
   72POPC   C1B  678   5.529   3.760   4.850  0.0099 -0.0747 -0.0207
   72POPC   C2B  679   5.179   3.942   4.636  0.2561 -0.3017  0.3714
   72POPC   C3B  680   5.002   4.037   4.208  0.1974  0.0669 -0.0052
   72POPC   C4B  681   4.837   4.350   3.908  0.5160 -0.2271 -0.1176
   73POPC   NC3  682   3.893   5.721   5.633  0.0508  0.1900  0.1490
   73POPC   PO4  683   3.727   5.387   5.835 -0.3636  0.0340  0.0022
   73POPC   GL1  684   3.504   5.322   5.543  0.1904  0.0132  0.2374
   73POPC   GL2  685   3.663   5.329   5.346  0.2900 -0.1057  0.1538
   73POPC   C1A  686   3.132   5.460   5.266  0.0877  0.1423 -0.3286
   73POPC   D2A  687   3.045   5.676   4.830  0.2097  0.2445 -0.1609
   73POPC   C3A  688   3.378   5.500   4.528  0.3206 -0.1237 -0.0559
   73POPC   C4A  689   3.625   5.736   4.236 -0.0773  0.0666  0.3426
   73POPC   C1B  690   3.401   5.046   4.945 -0.2433 -0.1408 -0.2033
   73POPC   C2B  691   3.488   4.959   4.499  0.2569 -0.1204  0.0115
   73POPC   C3B  692   3.455   4.923   4.034  0.0816  0.0098  0.1437
   73POPC   C4B  693   3.686   5.095   3.674 -0.3336  0.0681 -0.1489
   74POPC   NC3  694   3.249   1.017   5.454 -0.0828 -0.1305 -0.4488
   74POPC   PO4  695   2.935   1.163   5.453  0.0355 -0.2442  0.0041
   74POPC   GL1  696   2.877   1.188   5.071 -0.3366 -0.2260  0.1326
   74POPC   GL2  697   3.093   0.975   4.939  0.0436 -0.1067  0.2073
   74POPC   C1A  698   3.030   1.476   4.686 -0.0307 -0.0426 -0.1550
   74POPC   D2A  699   2.822   1.790   4.332 -0.3366  0.0616  0.3288
   74POPC   C3A  700   2.851   1.504   3.983 -0.0531 -0.0272 -0.3377
   74POPC   C4A  701   2.988   1.667   3.601 -0.0044  0.2094  0.1446
   74POPC   C1B  702   3.149   0.737   4.561  0.0437 -0.2253 -0.0543
   74POPC   C2B  703   3.100   0.740   4.104  0.4348 -0.0017 -0.2465
   74POPC   C3B  704   2.939   1.021   3.768 -0.1303  0.2748  0.1927
   74POPC   C4B  705   3.051   1.226   3.344 -0.1901 -0.1137  0.0426
   75POPC   NC3  706   2.651   9.124   5.366 -0.2894 -0.3629  0.2720
   75POPC   PO4  707   2.604   9.496   5.446 -0.1044  0.1013  0.1459
   75POPC   GL1  708   2.860   9.467   5.041 -0.3559  0.0047 -0.3067
   75POPC   GL2  709   3.077   9.428   4.845 -0.2073  0.2484 -0.1318
   75POPC   C1A  710   2.600   9.751   4.753 -0.2309 -0.0353 -0.1547
   75POPC   D2A  711   2.276   9.944   4.488  0.1427  0.0560 -0.0799
   75POPC   C3A  712   1.834   9.722   4.384  0.2450 -0.2496 -0.0135
   75POPC   C4A  713   1.467   9.515   4.435 -0.0924  0.0243  0.1186
   75POPC   C1B  714   2.832   9.423   4.468 -0.3369 -0.0699  0.2577
   75POPC   C2B  715   2.715   9.561   4.006 -0.0530 -0.0973  0.0723
   75POPC   C3B  716   2.661   9.757   3.641  0.3149 -0.0855 -0.1258
   75POPC   C4B  717   2.264  10.066   3.650 -0.1061  0.3118 -0.0630
   76POPC   NC3  718   1.478   7.791   5.193  0.1093  0.2878 -0.3417
   76POPC   PO4  719   1.802   7.616   5.329 -0.0426 -0.2447 -0.5000
   76POPC   GL1  720   1.802   7.483   4.949  0.2806 -0.1443  0.1027
   76POPC   GL2  721   1.545   7.558   4.773  0.1079 -0.0805 -0.1110
   76POPC   C1A  722   1.835   7.036   4.726 -0.0676  0.2114  0.2384
   76POPC   D2A  723   2.001   6.958   4.282  0.3118 -0.0329  0.0676
   76POPC   C3A  724   1.871   6.578   4.114 -0.1442  0.1003  0.1205
   76POPC   C4A  725   1.654   6.357   3.724  0.1554  0.2568 -0.1843
   76POPC   C1B  726   1.712   7.463   4.340  0.0935 -0.3011 -0.1016
   76POPC   C2B  727   2.042   7.368   3.984 -0.2180  0.3677 -0.2221
   76POPC   C3B  728   2.476   7.524   3.876  0.1024  0.1332  0.0242
   76POPC   C4B  729   2.725   7.902   3.978 -0.0651  0.2991 -0.1587
   77POPC   NC3  730   7.018   4.824   5.880 -0.1136 -0.2558 -0.0624
   77POPC   PO4  731   7.136   4.543   5.610  0.0242  0.1420  0.1399
   77POPC   GL1  732   7.205   4.499   5.206 -0.0326 -0.1543  0.3151
   77POPC   GL2  733   7.037   4.328   5.104 -0.0200 -0.0843 -0.3833
   77POPC   C1A  734   7.276   4.725   4.826 -0.4036  0.2069 -0.2159
   77POPC   D2A  735   7.343   4.530   4.389 -0.0197 -0.0695  0.1576
   77POPC   C3A  736   7.607   4.390   3.968 -0.1089  0.1919  0.3081
   77POPC   C4A  737   7.723   4.409   3.490 -0.3884  0.0320  0.0240
   77POPC   C1B  738   6.810   4.332   4.720  0.2071 -0.1576 -0.1862
   77POPC   C2B  739   6.594   4.155   4.365  0.1723  0.1382 -0.2930
   77POPC   C3B  740   6.707   4.011   3.936 -0.4585  0.0352  0.0467
   77POPC   C4B  741   6.789   3.848   3.582  0.2252  0.1455  0.2185
   78POPC   NC3  742   0.896   9.013   5.662  0.0866  0.2966 -0.0614
   78POPC   PO4  743   0.996   8.832   5.364  0.0252 -0.1795 -0.2009
   78POPC   GL1  744   1.230   8.736   5.053  0.0609 -0.1582  0.0786
   78POPC   GL2  745   1.197   8.913   4.857  0.2461 -0.0388 -0.0477
   78POPC   C1A  746   1.528   8.540   4.692  0.0419  0.0993  0.0556
   78POPC   D2A  747   1.729   8.597   4.314 -0.0523 -0.0997 -0.0822
   78POPC   C3A  748   1.363   8.807   4.031 -0.1370  0.0122 -0.0680
   78POPC   C4A  749   1.282   8.885   3.568  0.1271  0.0310  0.1573
   78POPC   C1B  750   1.120   8.711   4.474  0.1489 -0.0712  0.2306
   78POPC   C2B  751   1.290   8.361   4.195 -0.1388 -0.0132 -0.0500
   78POPC   C3B  752   1.453   7.931   4.056 -0.4983  0.0213  0.2028
   78POPC   C4B  753   1.635   7.813   3.662 -0.1437  0.0683 -0.0090
   79POPC   NC3  754   6.331   5.456   5.638  0.1360 -0.0387  0.0183
   79POPC   PO4  755   6.647   5.205   5.665  0.2085 -0.0013  0.0918
   79POPC   GL1  756   6.759   5.286   5.312 -0.1816  0.2028 -0.1233
   79POPC   GL2  757   6.565   5.445   5.170 -0.2064  0.0009 -0.0366
   79POPC   C1A  758   7.187   5.357   5.161 -0.1595 -0.0819 -0.1488
   79POPC   D2A  759   7.379   5.602   4.819 -0.2466  0.3782 -0.0151
   79POPC   C3A  760   7.167   5.752   4.485  0.1458  0.1525  0.1409
   79POPC   C4A  761   7.063   5.600   4.086  0.2464  0.1431  0.1550
   79POPC   C1B  762   6.443   5.167   4.872  0.1585 -0.0990 -0.1329
   79POPC   C2B  763   6.414   4.757   4.603  0.1115 -0.0559  0.2715
   79POPC   C3B  764   6.428   4.593   4.169  0.1982 -0.4361  0.1770
   79POPC   C4B  765   6.338   4.266   3.815 -0.0821  0.0479  0.0419
   80POPC   NC3  766   0.603   0.426   5.113 -0.1603  0.0085 -0.0732
   80POPC   PO4  767   0.879   0.178   5.218 -0.2185 -0.0803  0.0526
   80POPC   GL1  768   0.903   0.086   4.886 -0.3719 -0.4353 -0.4923
   80POPC   GL2  769   0.636   0.014   4.774  0.2619  0.1656 -0.1217
   80POPC   C1A  770   1.000   0.030   4.422 -0.1293 -0.3162  0.0607
   80POPC   D2A  771   1.224   0.188   4.032 -0.0558 -0.1726  0.2244
   80POPC   C3A  772   1.677   0.332   3.941 -0.3865 -0.3090 -0.4784
   80POPC   C4A  773   1.875   0.605   3.615 -0.0439  0.2462 -0.1059
   80POPC   C1B  774   0.616  -0.342   4.485 -0.1111 -0.1379  0.1010
   80POPC   C2B  775   0.329  -0.294   4.112  0.2438  0.0363  0.3049
   80POPC   C3B  776   0.401  -0.097   3.684 -0.0957 -0.1868 -0.2661
   80POPC   C4B  777   0.065   0.034   3.419  0.1314 -0.2330  0.0056
   81POPC   NC3  778   4.426   5.187   5.808  0.1410  0.1699 -0.0548
   81POPC   PO4  779   4.248   5.171   5.469 -0.0982 -0.0321 -0.1003
   81POPC   GL1  780   4.031   5.150   5.144 -0.0174 -0.1298 -0.0486
   81POPC   GL2  781   4.305   5.303   4.926 -0.0662  0.1564  0.0262
   81POPC   C1A  782   3.787   5.304   4.761 -0.0580  0.2787 -0.1730
   81POPC   D2A  783   3.801   5.255   4.314  0.0386 -0.1139  0.1938
   81POPC   C3A  784   3.893   5.503   3.896  0.0442 -0.0515  0.0866
   81POPC   C4A  785   4.102   5.319   3.513  0.0628 -0.0766  0.0846
   81POPC   C1B  786   4.593   5.668   4.747 -0.0744 -0.2881 -0.0413
   81POPC   C2B  787   4.778   5.783   4.340  0.3374 -0.7156  0.1068
   81POPC   C3B  788   4.590   6.062   4.019  0.3121  0.4465 -0.1577
   81POPC   C4B  789   4.498   6.234   3.573 -0.1096 -0.1795  0.1514
   82POPC   NC3  790   5.838   1.490   4.765 -0.0729  0.0184  0.3895
   82POPC   PO4  791   6.121   1.258   4.987  0.0025 -0.2178  0.1887
   82POPC   GL1  792   6.447   1.209   4.670 -0.0947  0.2584  0.4203
   82POPC   GL2  793   6.720   1.063   4.533  0.1267  0.1042  0.2810
   82POPC   C1A  794   6.364   1.280   4.232  0.2440 -0.1388 -0.2291
   82POPC   D2A  795   6.656   1.123   3.919  0.0599 -0.0844 -0.0248
   82POPC   C3A  796   7.055   1.260   3.743 -0.2029  0.0514  0.2604
   82POPC   C4A  797   7.304   1.644   3.637 -0.0678 -0.1618 -0.3798
   82POPC   C1B  798   6.890   0.627   4.277  0.1019 -0.4061  0.4126
   82POPC   C2B  799   7.026   0.351   3.906 -0.0386 -0.1076  0.0165
   82POPC   C3B  800   7.218   0.089   3.625  0.0103 -0.0967  0.2437
   82POPC   C4B  801   7.375  -0.355   3.736 -0.2482  0.1806  0.0613
   83POPC   NC3  802   2.446   1.354   5.300  0.2102  0.0716  0.1773
   83POPC   PO4  803   2.498   1.736   5.332  0.3757 -0.2472 -0.0042
   83POPC   GL1  804   2.345   1.711   4.890  0.4148  0.1843  0.0881
   83POPC   GL2  805   2.632   1.693   4.865 -0.1540 -0.0182 -0.1438
   83POPC   C1A  806   2.396   1.590   4.402  0.0557 -0.0194 -0.0474
   83POPC   D2A  807   2.284   1.876   4.056 -0.0647 -0.4774 -0.1117
   83POPC   C3A  808   2.026   1.648   3.726  0.4378 -0.0613  0.2694
   83POPC   C4A  809   1.977   1.289   3.505  0.0107  0.4355  0.1548
   83POPC   C1B  810   2.579   2.072   4.619 -0.1779 -0.2375 -0.1190
   83POPC   C2B  811   2.505   2.405   4.302 -0.1985  0.0721 -0.0493
   83POPC   C3B  812   2.384   2.806   4.100 -0.0789  0.0088 -0.3091
   83POPC   C4B  813   2.210   3.090   3.825  0.2591 -0.2815  0.1196
   84POPC   NC3  814   5.857   0.808   5.112  0.1931 -0.1426  0.0942
   84POPC   PO4  815   5.555   0.674   5.277  0.3694 -0.2724 -0.0844
   84POPC   GL1  816   5.407   0.732   4.905 -0.1446  0.2778  0.1861
   84POPC   GL2  817   5.441   1.015   4.768  0.1103  0.2505  0.3312
   84POPC   C1A  818   5.463   0.645   4.439 -0.1148 -0.1453  0.2057
   84POPC   D2A  819   5.564   0.627   4.000 -0.1009  0.0325 -0.0192
   84POPC   C3A  820   5.974   0.666   3.737 -0.1375 -0.3784  0.0432
   84POPC   C4A  821   6.281   0.501   3.454  0.0526 -0.1075 -0.2273
   84POPC   C1B  822   5.340   1.157   4.347  0.0218 -0.1858  0.0576
   84POPC   C2B  823   5.057   1.179   3.976  0.0177 -0.1122  0.2802
   84POPC   C3B  824   4.733   1.366   3.742  0.1160  0.4000 -0.1438
   84POPC   C4B  825   4.537   1.278   3.324  0.1061  0.1960  0.0565
   85POPC   NC3  826   2.983   3.196   6.167  0.2622 -0.0994 -0.1199
   85POPC   PO4  827   2.943   3.180   5.754 -0.1137  0.1600 -0.0532
   85POPC   GL1  828   3.226   2.981   5.452 -0.0951  0.0011 -0.0825
   85POPC   GL2  829   3.589   2.988   5.360 -0.0312 -0.0507  0.0994
   85POPC   C1A  830   3.232   2.894   4.974  0.0748  0.3627 -0.1387
   85POPC   D2A  831   3.341   3.035   4.508  0.0883  0.0911  0.1544
   85POPC   C3A  832   3.672   3.350   4.473  0.0281  0.1312 -0.3581
   85POPC   C4A  833   4.001   3.275   4.145 -0.0789  0.0912 -0.0609
   85POPC   C1B  834   3.711   3.032   4.963  0.0118  0.2367  0.3058
   85POPC   C2B  835   4.095   3.089   4.687  0.0746  0.2048 -0.0871
   85POPC   C3B  836   4.499   3.113   4.544 -0.1042  0.0311  0.2716
   85POPC   C4B  837   4.797   2.766   4.353 -0.0107  0.2436 -0.1074
   86POPC   NC3  838   5.066   3.974   5.665 -0.1984  0.0595  0.0860
   86POPC   PO4  839   4.866   4.267   5.473  0.1200  0.2452  0.1870
   86POPC   GL1  840   4.594   4.375   5.262  0.2232 -0.0139 -0.1882
   86POPC   GL2  841   4.370   4.353   5.406 -0.1177 -0.0418 -0.3665
   86POPC   C1A  842   4.707   4.267   4.850 -0.0022 -0.0201  0.2350
   86POPC   D2A  843   4.823   4.377   4.486 -0.3518 -0.2382 -0.0795
   86POPC   C3A  844   5.248   4.472   4.315  0.2311 -0.2568 -0.2374
   86POPC   C4A  845   5.608   4.222   4.412  0.1567 -0.0418  0.1782
   86POPC   C1B  846   4.170   4.314   4.972  0.1479  0.0589  0.1521
   86POPC   C2B  847   4.085   4.434   4.569 -0.1545  0.3516  0.0184
   86POPC   C3B  848   3.911   4.719   4.278  0.0403 -0.0012 -0.1351
   86POPC   C4B  849   4.124   4.997   3.942  0.0487  0.1021 -0.0245
   87POPC   NC3  850   5.204   1.022   5.323 -0.2915  0.0365  0.1110
   87POPC   PO4  851   4.823   1.020   5.310  0.1469 -0.1695 -0.0159
   87POPC   GL1  852   4.881   0.761   4.929  0.1770  0.1859 -0.0082
   87POPC   GL2  853   4.982   0.946   4.807 -0.1620 -0.0768  0.1344
   87POPC   C1A  854   4.547   0.726   4.569 -0.1346  0.0114  0.0055
   87POPC   D2A  855   4.140   0.874   4.321  0.0306 -0.0643 -0.1595
   87POPC   C3A  856   4.078   0.890   3.906  0.1350 -0.0522  0.0962
   87POPC   C4A  857   3.936   0.859   3.474  0.0565  0.0869  0.0171
   87POPC   C1B  858   4.968   0.756   4.340  0.2097  0.1242 -0.0042
   87POPC   C2B  859   4.969   0.472   3.989  0.0541 -0.0373 -0.2767
   87POPC   C3B  860   4.774   0.118   3.797  0.0989 -0.0578 -0.0488
   87POPC   C4B  861   4.461   0.073   3.468 -0.1078  0.0300  0.0825
   88POPC   NC3  862   3.343   8.447   5.642 -0.1264  0.1749 -0.1765
   88POPC   PO4  863   3.401   8.675   5.343 -0.1834 -0.1702  0.1785
   88POPC   GL1  864   3.740   8.666   5.124 -0.4127 -0.0023  0.0006
   88POPC   GL2  865   3.553   8.652   4.889  0.3899 -0.2597  0.0736
   88POPC   C1A  866   3.977   8.935   4.878 -0.1127  0.0477 -0.1450
   88POPC   D2A  867   4.185   8.922   4.466  0.0056  0.1473  0.2764
   88POPC   C3A  868   3.990   9.361   4.587  0.4564  0.1150  0.4065
   88POPC   C4A  869   4.074   9.754   4.791 -0.3439  0.1509  0.2146
   88POPC   C1B  870   3.695   8.755   4.477  0.1453  0.2301 -0.1589
   88POPC   C2B  871   3.727   9.047   4.115 -0.2096  0.0388 -0.4460
   88POPC   C3B  872   3.615   9.169   3.722 -0.0180 -0.0969 -0.0994
   88POPC   C4B  873   3.764   9.187   3.266 -0.0366 -0.4022  0.0206
   89POPC   NC3  874   2.749   6.955   5.907  0.0534 -0.3557  0.0511
   89POPC   PO4  875   2.439   6.733   5.895 -0.0169  0.2416 -0.0986
   89POPC   GL1  876   2.397   6.634   5.509  0.0708  0.2423 -0.0937
   89POPC   GL2  877   2.084   6.596   5.465 -0.0564  0.2590 -0.1338
   89POPC   C1A  878   2.585   6.354   5.132  0.2740 -0.2356 -0.1189
   89POPC   D2A  879   2.703   6.080   4.788 -0.1841 -0.0854  0.1726
   89POPC   C3A  880   2.671   6.132   4.320 -0.1376 -0.3566  0.0762
   89POPC   C4A  881   2.521   5.894   3.964 -0.2670 -0.0398 -0.2503
   89POPC   C1B  882   2.049   6.237   5.115  0.1892 -0.3436  0.0373
   89POPC   C2B  883   2.239   5.900   4.812  0.0784 -0.1601  0.2665
   89POPC   C3B  884   2.222   5.748   4.369  0.1012 -0.0832 -0.1121
   89POPC   C4B  885   2.164   5.494   3.938 -0.2172  0.0915 -0.1513
   90POPC   NC3  886   3.773   6.895   5.708 -0.2722  0.1078 -0.2106
   90POPC   PO4  887   4.091   6.754   5.574 -0.1038  0.1579 -0.0748
   90POPC   GL1  888   4.255   6.724   5.204 -0.0881 -0.2238 -0.0078
   90POPC   GL2  889   4.384   6.498   5.255 -0.1016 -0.2054  0.0543
   90POPC   C1A  890   4.631   6.942   5.092  0.0230  0.0581 -0.0536
   90POPC   D2A  891   4.948   7.187   4.899 -0.0069  0.0376  0.2603
   90POPC   C3A  892   5.134   7.150   4.486  0.1593 -0.0754  0.2188
   90POPC   C4A  893   5.378   7.399   4.247 -0.0902 -0.1028 -0.2460
   90POPC   C1B  894   4.631   6.460   4.929  0.1394 -0.0640 -0.0356
   90POPC   C2B  895   4.894   6.266   4.622  0.2037  0.2015 -0.1402
   90POPC   C3B  896   5.011   6.368   4.196  0.0107 -0.1209 -0.3287
   90POPC   C4B  897   4.991   6.137   3.789  0.3277  0.1131  0.0546
   91POPC   NC3  898   0.176   8.319   5.077 -0.3080 -0.1343  0.0014
   91POPC   PO4  899   0.052   8.653   5.229 -0.0457  0.1673 -0.0801
   91POPC   GL1  900  -0.184   8.979   5.098  0.1827 -0.0862  0.3704
   91POPC   GL2  901  -0.478   8.843   5.001 -0.3679 -0.0079  0.1815
   91POPC   C1A  902  -0.154   9.197   4.701  0.1814  0.1030 -0.1373
   91POPC   D2A  903  -0.189   9.132   4.207  0.1256 -0.3678  0.1591
   91POPC   C3A  904   0.020   9.402   3.936  0.0662  0.1166  0.0794
   91POPC   C4A  905  -0.127   9.639   3.579  0.1318 -0.2302 -0.1664
   91POPC   C1B  906  -0.200   8.706   4.557 -0.0249  0.0556 -0.3100
   91POPC   C2B  907  -0.125   8.492   4.190 -0.3295  0.1626  0.1991
   91POPC   C3B  908  -0.397   8.387   3.911  0.2217 -0.0902  0.2301
   91POPC   C4B  909  -0.762   8.130   3.807  0.2129  0.0770 -0.0109
   92POPC   NC3  910   5.974   5.370   5.113 -0.2108  0.0089  0.0384
   92POPC   PO4  911   5.713   5.185   5.257  0.4635  0.1159 -0.0287
   92POPC   GL1  912   5.612   5.082   4.902  0.0931 -0.0796 -0.1491
   92POPC   GL2  913   5.273   5.186   4.917  0.3759 -0.1789 -0.1784
   92POPC   C1A  914   6.002   5.087   4.617  0.0499 -0.1828 -0.0570
   92POPC   D2A  915   6.221   5.046   4.215  0.0831  0.0715  0.0613
   92POPC   C3A  916   6.658   5.008   4.008 -0.1375  0.1203  0.1743
   92POPC   C4A  917   7.048   5.194   3.710 -0.1689  0.1146  0.0290
   92POPC   C1B  918   5.438   5.178   4.493  0.2901 -0.0356 -0.0368
   92POPC   C2B  919   5.700   5.107   4.151 -0.1460  0.0661 -0.2535
   92POPC   C3B  920   5.649   5.140   3.678 -0.0543 -0.0673  0.2633
   92POPC   C4B  921   5.822   5.104   3.273  0.1867  0.1834  0.0295
   93POPC   NC3  922   7.521   7.472   5.601 -0.0914  0.0949  0.0528
   93POPC   PO4  923   7.412   7.854   5.582 -0.0616 -0.0415 -0.1438
   93POPC   GL1  924   7.593   8.034   5.214 -0.1712  0.2168  0.1935
   93POPC   GL2  925   7.790   8.071   4.966  0.0679  0.0603  0.2916
   93POPC   C1A  926   7.335   8.156   4.784 -0.2031 -0.1038 -0.2805
   93POPC   D2A  927   7.096   8.118   4.367 -0.1032 -0.0600 -0.1567
   93POPC   C3A  928   7.326   8.170   3.922  0.0113 -0.0944  0.1565
   93POPC   C4A  929   7.633   8.328   3.617  0.0769  0.1613 -0.0044
   93POPC   C1B  930   7.678   7.672   4.762 -0.0457 -0.2641  0.2095
   93POPC   C2B  931   7.772   7.566   4.340  0.0188  0.1874 -0.1276
   93POPC   C3B  932   7.641   7.383   3.958  0.5087  0.0572 -0.3961
   93POPC   C4B  933   7.818   7.163   3.621  0.3302 -0.0274 -0.1694
   94POPC   NC3  934   4.005   4.004   5.404  0.3026 -0.1255  0.0940
   94POPC   PO4  935   3.671   3.857   5.607  0.2292  0.2563  0.2990
   94POPC   GL1  936   3.621   3.811   5.179  0.1639  0.0368  0.2816
   94POPC   GL2  937   3.741   4.048   4.984  0.0524 -0.2193  0.1027
   94POPC   C1A  938   3.386   3.817   4.773  0.1768  0.0812 -0.0125
   94POPC   D2A  939   3.323   3.926   4.345  0.5065 -0.4084 -0.0117
   94POPC   C3A  940   3.480   4.086   3.957 -0.0764 -0.0527  0.2778
   94POPC   C4A  941   3.355   4.184   3.500  0.0750 -0.1404  0.1297
   94POPC   C1B  942   3.601   4.324   4.647  0.0907  0.2123  0.0893
   94POPC   C2B  943   3.401   4.441   4.277 -0.1660 -0.0717 -0.0771
   94POPC   C3B  944   3.168   4.501   3.853  0.0156 -0.5006 -0.0547
   94POPC   C4B  945   3.076   4.644   3.386 -0.0728  0.3178 -0.1834
   95POPC   NC3  946   0.208   6.781   5.906 -0.0675 -0.1037 -0.0068
   95POPC   PO4  947  -0.055   6.594   5.664  0.3509 -0.2316  0.0485
   95POPC   GL1  948   0.128   6.543   5.319  0.7254 -0.8322  0.0537
   95POPC   GL2  949  -0.072   6.591   5.151 -0.1107  0.0902  0.3225
   95POPC   C1A  950   0.397   6.371   5.039 -0.0010 -0.3104 -0.1251
   95POPC   D2A  951   0.382   6.219   4.609  0.0007  0.0378 -0.0498
   95POPC   C3A  952   0.655   6.561   4.442 -0.1270  0.2416  0.4247
   95POPC   C4A  953   0.876   6.605   4.030  0.1783 -0.0411  0.2142
   95POPC   C1B  954  -0.202   6.941   4.894  0.0370 -0.3363  0.0580
   95POPC   C2B  955   0.030   7.309   4.692 -0.0610 -0.4073  0.4260
   95POPC   C3B  956   0.183   7.370   4.267 -0.1467 -0.0420  0.0910
   95POPC   C4B  957   0.063   7.562   3.892  0.0162 -0.1419  0.0158
   96POPC   NC3  958   3.520   0.024   5.078 -0.1256  0.1463  0.2060
   96POPC   PO4  959   3.158   0.034   5.284 -0.2985 -0.2333 -0.0286
   96POPC   GL1  960   3.121  -0.183   4.936 -0.2128 -0.1572  0.4329
   96POPC   GL2  961   2.888  -0.266   4.934  0.0901  0.3553  0.0598
   96POPC   C1A  962   3.248  -0.075   4.486  0.0037  0.2504  0.0915
   96POPC   D2A  963   3.130   0.188   4.110 -0.1357 -0.0495 -0.0873
   96POPC   C3A  964   3.054   0.336   3.668 -0.1841  0.0330 -0.1596
   96POPC   C4A  965   3.069   0.715   3.345  0.0287  0.0294  0.2032
   96POPC   C1B  966   2.726  -0.179   4.483  0.0294  0.1092  0.2727
   96POPC   C2B  967   2.702  -0.048   4.045 -0.1241  0.0451  0.3371
   96POPC   C3B  968   2.660   0.071   3.550 -0.0955 -0.1922  0.2442
   96POPC   C4B  969   2.805   0.347   3.205  0.1667  0.1585  0.0051
   97POPC   NC3  970   1.169   5.334   6.430 -0.2797  0.0764  0.1154
   97POPC   PO4  971   1.224   5.044   6.196  0.1519 -0.2649 -0.2272
   97POPC   GL1  972   1.034   5.257   5.816  0.1758 -0.0871 -0.1937
   97POPC   GL2  973   1.281   5.421   5.737  0.0494 -0.1426 -0.3122
   97POPC   C1A  974   0.959   5.440   5.392  0.1324 -0.1900  0.2257
   97POPC   D2A  975   0.564   5.324   5.077  0.0589 -0.1329  0.0292
   97POPC   C3A  976   0.489   5.248   4.645 -0.3771 -0.1561  0.0363
   97POPC   C4A  977   0.707   5.010   4.310 -0.2646  0.2988 -0.2188
   97POPC   C1B  978   1.369   5.145   5.387 -0.3295 -0.1814  0.0916
   97POPC   C2B  979   1.612   5.237   4.996  0.1514 -0.3940  0.0544
   97POPC   C3B  980   1.395   5.361   4.624  0.0938 -0.1079 -0.2264
   97POPC   C4B  981   0.921   5.429   4.515  0.3509 -0.1467  0.0175
   98POPC   NC3  982   0.436   0.550   5.911 -0.1428  0.1513 -0.2448
   98POPC   PO4  983   0.280   0.648   5.580 -0.0147  0.0286  0.0510
   98POPC   GL1  984   0.162   0.711   5.148 -0.2564  0.0215 -0.1575
   98POPC   GL2  985   0.374   0.832   5.032 -0.1426 -0.0829  0.0460
   98POPC   C1A  986   0.151   0.415   4.797 -0.4725  0.1680  0.2182
   98POPC   D2A  987   0.263   0.066   4.451  0.0570 -0.1458 -0.4138
   98POPC   C3A  988   0.502   0.190   4.094  0.0582  0.1774  0.2806
   98POPC   C4A  989   0.801   0.222   3.678  0.2443 -0.2917  0.0740
   98POPC   C1B  990   0.064   0.913   4.689 -0.3156  0.0882 -0.2109
   98POPC   C2B  991  -0.354   1.008   4.465 -0.3155 -0.0560  0.1796
   98POPC   C3B  992  -0.736   0.963   4.287 -0.0491  0.0669  0.0212
   98POPC   C4B  993  -0.812   0.831   3.921  0.2633 -0.0795 -0.0132
   99POPC   NC3  994   6.997   6.450   6.054 -0.1120  0.5208 -0.0091
   99POPC   PO4  995   7.298   6.719   6.061  0.0542  0.1474 -0.0243
   99POPC   GL1  996   7.402   6.688   5.619  0.3898 -0.1002 -0.1261
   99POPC   GL2  997   7.340   6.969   5.546 -0.0720 -0.1828  0.0694
   99POPC   C1A  998   7.310   6.448   5.221 -0.0860 -0.0237  0.1511
   99POPC   D2A  999   7.177   6.196   4.890  0.2343 -0.3948 -0.0663
   99POPC   C3A 1000   7.366   6.282   4.411 -0.0719 -0.2439 -0.1406
   99POPC   C4A 1001   7.809   6.305   4.265  0.0875  0.0164 -0.1769
   99POPC   C1B 1002   7.261   6.939   5.063  0.2679  0.0007  0.1949
   99POPC   C2B 1003   7.219   6.858   4.596  0.1542 -0.0657 -0.0218
   99POPC   C3B 1004   7.072   6.696   4.224 -0.0152 -0.0684 -0.1767
   99POPC   C4B 1005   6.872   6.570   3.880  0.1013  0.1837 -0.0956
  100POPC   NC3 1006   8.292   2.936   5.502 -0.2249 -0.2193  0.2097
  100POPC   PO4 1007   8.587   2.818   5.301  0.1743 -0.0166 -0.2914
  100POPC   GL1 1008   8.931   3.024   5.238  0.1177  0.0396  0.2199
  100POPC   GL2 1009   8.922   2.869   4.959  0.0209  0.0569 -0.0223
  100POPC   C1A 1010   9.196   3.266   4.929  0.1832 -0.0271 -0.0259
  100POPC   D2A 1011   9.441   3.519   4.559  0.0988  0.1166  0.0249
  100POPC   C3A 1012   9.696   3.886   4.664 -0.1046 -0.2202 -0.1488
  100POPC   C4A 1013  10.034   4.148   4.473  0.0967  0.1140 -0.1662
  100POPC   C1B 1014   8.626   3.002   4.666  0.3283 -0.0897  0.0411
  100POPC   C2B 1015   8.337   2.824   4.347  0.0137 -0.4060  0.2752
  100POPC   C3B 1016   8.251   2.891   3.880 -0.2312 -0.2214 -0.2096
  100POPC   C4B 1017   7.944   3.049   3.591  0.0063 -0.0369  0.0475
  101POPC   NC3 1018   1.309   6.145   5.848 -0.2576  0.1835  0.5736
  101POPC   PO4 1019   1.273   6.528   5.789  0.1634 -0.1572  0.0340
  101POPC   GL1 1020   1.362   6.406   5.415  0.1401  0.3115  0.2596
  101POPC   GL2 1021   1.584   6.322   5.373 -0.0516  0.1437 -0.0856
  101POPC   C1A 1022   1.070   6.269   5.030  0.0853  0.1335 -0.0573
  101POPC   D2A 1023   1.022   6.224   4.498  0.1566 -0.0726 -0.0494
  101POPC   C3A 1024   0.619   6.116   4.174  0.0252 -0.1556  0.0607
  101POPC   C4A 1025   0.409   5.996   3.778 -0.1922 -0.0256  0.0783
  101POPC   C1B 1026   1.580   6.171   4.920 -0.2010  0.0857  0.1391
  101POPC   C2B 1027   1.798   6.092   4.502  0.0653  0.0088 -0.1011
  101POPC   C3B 1028   2.106   6.167   4.201 -0.0596  0.0411  0.1839
  101POPC   C4B 1029   2.289   6.404   3.870  0.1570 -0.2165 -0.3529
  102POPE   NH3 1030   3.391   1.999   5.493 -0.0705 -0.0863  0.3647
  102POPE   PO4 1031   3.636   1.861   5.342  0.0193 -0.3017  0.2105
  102POPE   GL1 1032   3.495   1.844   4.978  0.0681 -0.0959  0.0889
  102POPE   GL2 1033   3.690   2.032   4.863  0.1109 -0.2084 -0.0171
  102POPE   C1A 1034   3.160   1.967   4.646  0.1127 -0.2530  0.4101
  102POPE   D2A 1035   3.040   2.236   4.300 -0.1919  0.2491  0.4409
  102POPE   C3A 1036   2.747   2.096   3.980 -0.1941 -0.0403  0.1510
  102POPE   C4A 1037   2.482   1.988   3.612 -0.0209  0.3774 -0.5119
  102POPE   C1B 1038   3.596   1.843   4.436 -0.0538 -0.0105 -0.0424
  102POPE   C2B 1039   3.285   1.813   4.110  0.1509 -0.1112  0.2915
  102POPE   C3B 1040   3.195   2.109   3.728 -0.0268 -0.5449 -0.3335
  102POPE   C4B 1041   3.479   1.973   3.369 -0.0337 -0.2375 -0.1488
  103POPE   NH3 1042   3.375   3.426   5.616  0.1403 -0.0196  0.1093
  103POPE   PO4 1043   3.190   3.684   5.507  0.0312 -0.1708 -0.0989
  103POPE   GL1 1044   3.091   3.698   5.120 -0.5317 -0.0407  0.0375
  103POPE   GL2 1045   2.976   3.984   5.093  0.5554 -0.0671  0.0640
  103POPE   C1A 1046   3.066   3.442   4.656  0.2050  0.1656  0.0613
  103POPE   D2A 1047   2.840   3.189   4.387 -0.3361 -0.2292 -0.1159
  103POPE   C3A 1048   2.890   3.039   3.924 -0.1295 -0.1029 -0.2176
  103POPE   C4A 1049   3.231   3.160   3.647  0.1509 -0.1794  0.0660
  103POPE   C1B 1050   3.075   4.191   4.683  0.0327  0.2834  0.2466
  103POPE   C2B 1051   2.846   4.265   4.276 -0.0157 -0.1481 -0.1989
  103POPE   C3B 1052   2.912   4.026   3.807 -0.3907  0.2623 -0.3856
  103POPE   C4B 1053   2.899   4.069   3.280 -0.2052  0.0154 -0.0212
  104POPE   NH3 1054   5.142   5.915   5.470 -0.2516 -0.0435 -0.1833
  104POPE   PO4 1055   5.305   6.181   5.452 -0.0648 -0.0802  0.0568
  104POPE   GL1 1056   5.190   6.160   5.052 -0.0812  0.4161  0.3644
  104POPE   GL2 1057   5.381   6.345   4.940 -0.1658  0.1379 -0.0726
  104POPE   C1A 1058   5.283   5.934   4.638 -0.2342 -0.1611  0.0261
  104POPE   D2A 1059   5.261   5.832   4.152  0.1229 -0.1169  0.0162
  104POPE   C3A 1060   5.466   5.663   3.754 -0.3732 -0.3688  0.3970
  104POPE   C4A 1061   5.822   5.936   3.544 -0.1415 -0.1755 -0.2252
  104POPE   C1B 1062   5.460   6.474   4.505 -0.0117  0.1251  0.1502
  104POPE   C2B 1063   5.708   6.558   4.097 -0.0984  0.1972  0.1608
  104POPE   C3B 1064   5.889   6.529   3.624 -0.1602  0.0518  0.1386
  104POPE   C4B 1065   5.919   6.470   3.196 -0.3928  0.2059  0.0675
  105POPE   NH3 1066   8.812   3.352   5.603 -0.0585  0.1560  0.0993
  105POPE   PO4 1067   8.775   3.674   5.649  0.0630 -0.2423 -0.3256
  105POPE   GL1 1068   8.738   3.723   5.290 -0.2191 -0.0651  0.2732
  105POPE   GL2 1069   9.004   3.708   5.178 -0.1695  0.3650  0.0440
  105POPE   C1A 1070   8.773   4.094   4.989  0.1169 -0.0953 -0.1065
  105POPE   D2A 1071   9.053   4.435   4.832 -0.2441 -0.0821  0.0830
  105POPE   C3A 1072   9.387   4.267   4.504  0.3949  0.0542 -0.2358
  105POPE   C4A 1073   9.624   4.041   4.187 -0.0514 -0.1414  0.2224
  105POPE   C1B 1074   9.191   3.926   4.865 -0.0806  0.0606 -0.2341
  105POPE   C2B 1075   8.968   4.004   4.464 -0.2902  0.1497 -0.0920
  105POPE   C3B 1076   9.032   4.105   4.012 -0.0239  0.1851  0.0384
  105POPE   C4B 1077   8.973   4.236   3.584  0.2643  0.1724  0.1051
  106POPE   NH3 1078   7.227   2.085   4.906 -0.0691 -0.4721  0.0210
  106POPE   PO4 1079   7.497   1.982   4.950  0.0226 -0.1846  0.1398
  106POPE   GL1 1080   7.364   1.641   4.855  0.3381 -0.1406  0.0036
  106POPE   GL2 1081   7.168   1.675   4.647 -0.0899  0.0620  0.3216
  106POPE   C1A 1082   7.400   1.273   4.507 -0.0654 -0.0563 -0.0260
  106POPE   D2A 1083   7.108   1.063   4.257  0.2366 -0.1694 -0.0163
  106POPE   C3A 1084   7.286   0.808   3.885 -0.0959  0.0320 -0.3561
  106POPE   C4A 1085   7.309   0.891   3.427  0.5700  0.3469  0.0511
  106POPE   C1B 1086   7.004   1.962   4.337  0.0564 -0.3476  0.2748
  106POPE   C2B 1087   6.607   2.076   4.053  0.0230 -0.2911 -0.0112
  106POPE   C3B 1088   6.425   2.009   3.570 -0.0788 -0.1855  0.2966
  106POPE   C4B 1089   6.058   1.746   3.460  0.0403  0.2183 -0.1506
  107POPE   NH3 1090   5.578   2.674   5.016 -0.2769  0.0589  0.0336
  107POPE   PO4 1091   5.260   2.656   5.101 -0.3579  0.2057 -0.0380
  107POPE   GL1 1092   5.002   2.514   4.844 -0.4700  0.2450  0.1054
  107POPE   GL2 1093   4.802   2.681   4.868  0.0912  0.1290 -0.1134
  107POPE   C1A 1094   4.725   2.302   4.493  0.1111  0.3110  0.1599
  107POPE   D2A 1095   4.392   2.232   4.203 -0.0871 -0.0479  0.1265
  107POPE   C3A 1096   3.923   2.293   4.328 -0.1349  0.0510 -0.2634
  107POPE   C4A 1097   3.594   2.187   4.021  0.0883 -0.3418 -0.3326
  107POPE   C1B 1098   4.977   3.076   4.659  0.4728  0.3292  0.0811
  107POPE   C2B 1099   5.065   3.149   4.184 -0.2604  0.1268  0.0905
  107POPE   C3B 1100   5.064   3.525   3.900  0.5096 -0.1664  0.2361
  107POPE   C4B 1101   5.096   3.932   3.681  0.0624 -0.0087 -0.4463
  108POPE   NH3 1102   0.422   3.889   5.916 -0.0168 -0.1495  0.2153
  108POPE   PO4 1103   0.577   4.115   5.739  0.0864 -0.1768 -0.1042
  108POPE   GL1 1104   0.527   4.132   5.333 -0.0908  0.0380 -0.1319
  108POPE   GL2 1105   0.786   3.927   5.296  0.2502 -0.0273  0.0165
  108POPE   C1A 1106   0.528   4.325   4.890  0.1924  0.3198  0.2642
  108POPE   D2A 1107   0.654   4.559   4.512  0.1130  0.1600 -0.0268
  108POPE   C3A 1108   0.763   4.884   4.804  0.2054  0.0994 -0.2940
  108POPE   C4A 1109   1.042   5.208   4.952 -0.1911  0.1030  0.0702
  108POPE   C1B 1110   0.915   3.954   4.955  0.1526 -0.0683 -0.1396
  108POPE   C2B 1111   1.081   3.703   4.659  0.0432  0.1168  0.0250
  108POPE   C3B 1112   1.284   3.291   4.618  0.0758 -0.1361 -0.0698
  108POPE   C4B 1113   1.565   3.126   4.372 -0.1260 -0.0752  0.0831
  109POPE   NH3 1114   1.365   1.508   5.354  0.1948  0.0020  0.0701
  109POPE   PO4 1115   1.474   1.815   5.442  0.0747 -0.0103  0.1538
  109POPE   GL1 1116   1.040   1.847   5.209 -0.0356  0.0121  0.0398
  109POPE   GL2 1117   1.182   1.963   4.937  0.2172  0.1640  0.2687
  109POPE   C1A 1118   0.802   1.582   4.942  0.1269 -0.2245  0.2627
  109POPE   D2A 1119   0.965   1.312   4.545  0.0447 -0.0659 -0.1157
  109POPE   C3A 1120   0.840   1.190   4.135 -0.1675  0.0205  0.4774
  109POPE   C4A 1121   0.511   1.123   3.774 -0.3064 -0.0474 -0.2985
  109POPE   C1B 1122   1.110   2.155   4.492 -0.0913  0.0242 -0.4299
  109POPE   C2B 1123   0.720   2.191   4.260 -0.3767 -0.3491  0.0823
  109POPE   C3B 1124   0.248   2.171   4.063 -0.1839 -0.0221 -0.4911
  109POPE   C4B 1125  -0.187   2.271   3.864 -0.2004 -0.1968  0.0860
  110POPE   NH3 1126   8.124   8.151   5.364  0.0508 -0.0352 -0.2002
  110POPE   PO4 1127   8.340   8.020   5.576  0.0786  0.1135 -0.0258
  110POPE   GL1 1128   8.471   8.060   5.111 -0.0491  0.3333 -0.2260
  110POPE   GL2 1129   8.556   7.769   5.115 -0.0704  0.0675  0.0732
  110POPE   C1A 1130   8.200   8.279   4.841 -0.4137  0.1141  0.0539
  110POPE   D2A 1131   7.844   8.349   4.542 -0.3201 -0.0225 -0.0461
  110POPE   C3A 1132   7.569   8.042   4.329  0.1039  0.0862 -0.2662
  110POPE   C4A 1133   7.286   7.661   4.395 -0.4016 -0.0098 -0.0727
  110POPE   C1B 1134   8.639   7.449   4.812  0.1208 -0.0798 -0.2434
  110POPE   C2B 1135   8.383   7.440   4.389  0.1620 -0.0749  0.1630
  110POPE   C3B 1136   8.159   7.608   4.000  0.0460  0.1226 -0.0651
  110POPE   C4B 1137   7.923   7.983   3.966 -0.2150 -0.2359 -0.2652
  111POPE   NH3 1138   0.529   6.813   5.506  0.0961 -0.0113  0.0623
  111POPE   PO4 1139   0.471   7.073   5.356 -0.0298  0.0333 -0.0734
  111POPE   GL1 1140   0.420   7.046   4.955  0.0979 -0.2913 -0.0434
  111POPE   GL2 1141   0.276   6.818   4.868 -0.0633 -0.0249  0.0786
  111POPE   C1A 1142   0.552   7.324   4.566 -0.3591 -0.0908 -0.0380
  111POPE   D2A 1143   0.694   7.618   4.272  0.0168  0.0740 -0.0507
  111POPE   C3A 1144   0.485   7.961   3.966  0.0143  0.0878  0.1472
  111POPE   C4A 1145   0.181   8.026   3.565  0.0968  0.0663  0.1571
  111POPE   C1B 1146   0.242   6.871   4.424  0.1728 -0.0678  0.0819
  111POPE   C2B 1147  -0.017   6.953   4.096  0.0712 -0.1006 -0.0956
  111POPE   C3B 1148  -0.168   7.072   3.662  0.3305  0.0744  0.0417
  111POPE   C4B 1149  -0.405   7.298   3.343  0.1132 -0.2957  0.2744
  112POPE   NH3 1150   8.914   2.434   5.458 -0.0482 -0.2738  0.3298
  112POPE   PO4 1151   8.732   2.280   5.209 -0.2567 -0.1134 -0.3417
  112POPE   GL1 1152   8.954   2.160   4.859 -0.0126 -0.2245 -0.0993
  112POPE   GL2 1153   9.072   2.380   4.859  0.1634  0.0045  0.1192
  112POPE   C1A 1154   8.844   1.943   4.466  0.0845  0.0653  0.2567
  112POPE   D2A 1155   8.674   1.559   4.238  0.4899 -0.1087 -0.1410
  112POPE   C3A 1156   8.827   1.207   4.037 -0.0477  0.1872  0.2395
  112POPE   C4A 1157   8.909   0.792   3.954  0.2931  0.1171 -0.1553
  112POPE   C1B 1158   8.996   2.525   4.384 -0.0781  0.1917 -0.3025
  112POPE   C2B 1159   8.796   2.746   4.112  0.0787 -0.3619  0.0464
  112POPE   C3B 1160   8.862   2.871   3.670  0.1284  0.0269  0.0176
  112POPE   C4B 1161   8.991   3.025   3.265  0.0013  0.0270  0.1627
  113POPE   NH3 1162   1.783   1.063   5.248 -0.3277  0.1388 -0.0469
  113POPE   PO4 1163   2.065   1.069   5.364  0.1673 -0.0431 -0.1348
  113POPE   GL1 1164   2.241   1.014   4.995  0.2824  0.2765 -0.1718
  113POPE   GL2 1165   2.046   1.118   4.771 -0.0056 -0.2501  0.1727
  113POPE   C1A 1166   2.582   1.197   4.753  0.1178  0.1682  0.1574
  113POPE   D2A 1167   2.823   1.090   4.370  0.0255 -0.0215  0.0890
  113POPE   C3A 1168   2.514   0.922   4.078 -0.1515  0.0416 -0.1621
  113POPE   C4A 1169   2.182   0.616   4.033  0.2460  0.0995  0.1552
  113POPE   C1B 1170   2.009   1.221   4.371 -0.1391  0.1255 -0.1951
  113POPE   C2B 1171   2.233   1.331   3.967 -0.0111  0.4009 -0.0407
  113POPE   C3B 1172   2.544   1.336   3.567  0.0674 -0.2373 -0.1621
  113POPE   C4B 1173   2.636   1.460   3.129  0.3248 -0.1004  0.0544
  114POPE   NH3 1174   0.320   5.359   6.470 -0.0400 -0.0571  0.2622
  114POPE   PO4 1175   0.186   5.141   6.294 -0.2608 -0.0481  0.1240
  114POPE   GL1 1176   0.305   5.088   5.893 -0.1137 -0.2866 -0.2608
  114POPE   GL2 1177   0.451   5.349   5.739 -0.1185 -0.1257 -0.1895
  114POPE   C1A 1178   0.727   4.863   5.767  0.2758  0.1694 -0.0661
  114POPE   D2A 1179   0.826   4.908   5.315 -0.4346 -0.0213 -0.4427
  114POPE   C3A 1180   1.231   4.761   5.102  0.2496 -0.2550 -0.2446
  114POPE   C4A 1181   1.289   4.876   4.642  0.0016  0.2184 -0.3499
  114POPE   C1B 1182   0.237   5.112   5.412 -0.2328  0.3037  0.0501
  114POPE   C2B 1183   0.299   4.834   5.018 -0.1780  0.2462 -0.0979
  114POPE   C3B 1184   0.285   4.806   4.547  0.3708  0.0691  0.2019
  114POPE   C4B 1185   0.333   4.700   4.123  0.4990 -0.1691  0.3567
  115POPE   NH3 1186   2.769   2.704   5.602  0.1590  0.0253  0.3102
  115POPE   PO4 1187   3.006   2.497   5.466 -0.2235 -0.0198 -0.1467
  115POPE   GL1 1188   2.871   2.674   5.143 -0.2400  0.0480 -0.5520
  115POPE   GL2 1189   2.563   2.689   5.114 -0.0485 -0.0556 -0.1172
  115POPE   C1A 1190   2.802   2.550   4.698 -0.2187  0.3426  0.1158
  115POPE   D2A 1191   2.878   2.721   4.268 -0.1134  0.1185  0.2238
  115POPE   C3A 1192   2.850   2.525   3.852 -0.1991  0.0304 -0.0974
  115POPE   C4A 1193   2.450   2.478   3.656  0.1560  0.2957  0.0513
  115POPE   C1B 1194   2.275   2.465   4.832  0.0681 -0.2230  0.1875
  115POPE   C2B 1195   2.064   2.249   4.494 -0.1506 -0.0827 -0.1063
  115POPE   C3B 1196   2.057   2.336   3.997 -0.0749  0.1317  0.3070
  115POPE   C4B 1197   1.923   2.624   3.636  0.0044  0.0672 -0.2899
  116POPE   NH3 1198   4.311   6.294   5.748  0.1642  0.0448  0.1960
  116POPE   PO4 1199   3.989   6.227   5.709  0.3378  0.0389 -0.2191
  116POPE   GL1 1200   3.813   6.110   5.389 -0.0148 -0.1018  0.3553
  116POPE   GL2 1201   3.992   6.246   5.158  0.1101 -0.0872 -0.1916
  116POPE   C1A 1202   3.533   6.350   5.089  0.1676  0.1220  0.0723
  116POPE   D2A 1203   3.424   6.748   4.776 -0.0487 -0.2787  0.1994
  116POPE   C3A 1204   3.204   7.174   4.879 -0.0587  0.1090 -0.0879
  116POPE   C4A 1205   2.910   7.522   4.770 -0.0856  0.0038  0.2146
  116POPE   C1B 1206   3.962   6.253   4.731  0.1923  0.1274  0.0394
  116POPE   C2B 1207   3.948   6.110   4.314  0.1408  0.1403  0.1185
  116POPE   C3B 1208   4.068   6.068   3.827  0.1493 -0.1453 -0.1881
  116POPE   C4B 1209   4.375   5.718   3.630 -0.0274 -0.3411 -0.2450
  117POPE   NH3 1210   2.308   7.874   5.348 -0.0367  0.1813 -0.0340
  117POPE   PO4 1211   2.281   8.155   5.224  0.2437 -0.2519 -0.3809
  117POPE   GL1 1212   2.545   8.242   4.889 -0.1388 -0.3794  0.1335
  117POPE   GL2 1213   2.516   8.543   4.714 -0.2799 -0.0667  0.4692
  117POPE   C1A 1214   2.626   7.978   4.489 -0.1900  0.0546  0.0394
  117POPE   D2A 1215   2.682   7.559   4.325  0.0631  0.2831 -0.0752
  117POPE   C3A 1216   3.015   7.238   4.389  0.1483 -0.3461  0.1666
  117POPE   C4A 1217   3.259   6.886   4.299  0.0429  0.4157  0.0274
  117POPE   C1B 1218   2.533   8.487   4.268  0.1036 -0.1696 -0.1039
  117POPE   C2B 1219   2.631   8.600   3.835 -0.1149  0.1222 -0.1071
  117POPE   C3B 1220   2.797   8.234   3.573  0.1228 -0.0336  0.1027
  117POPE   C4B 1221   2.827   7.922   3.241 -0.0735 -0.1941 -0.0484
  118POPE   NH3 1222   0.718   7.480   5.403  0.0530  0.1652 -0.0178
  118POPE   PO4 1223   1.044   7.561   5.499  0.0177 -0.1106 -0.1523
  118POPE   GL1 1224   1.129   7.502   5.078 -0.0795 -0.0079  0.1675
  118POPE   GL2 1225   1.024   7.855   5.057 -0.1357 -0.4772 -0.0525
  118POPE   C1A 1226   1.238   7.146   4.763  0.0560 -0.2266 -0.1584
  118POPE   D2A 1227   1.437   7.098   4.400 -0.1985  0.0339 -0.0588
  118POPE   C3A 1228   1.312   6.737   4.145 -0.2697  0.0556  0.0709
  118POPE   C4A 1229   1.210   6.529   3.686 -0.0262  0.0103 -0.1411
  118POPE   C1B 1230   1.000   7.581   4.675 -0.1036 -0.2501  0.0543
  118POPE   C2B 1231   1.205   7.548   4.287 -0.3364  0.1085 -0.0013
  118POPE   C3B 1232   1.059   7.612   3.826  0.1028  0.0069  0.0124
  118POPE   C4B 1233   1.057   7.369   3.446  0.3297  0.1664  0.0873
  119POPE   NH3 1234   1.954   1.850   5.452 -0.2234  0.3209 -0.1735
  119POPE   PO4 1235   1.904   1.581   5.278  0.0763 -0.0869 -0.0373
  119POPE   GL1 1236   1.601   1.570   4.975 -0.0260  0.1739  0.0427
  119POPE   GL2 1237   1.584   1.278   4.881 -0.0717 -0.3128 -0.1130
  119POPE   C1A 1238   1.527   1.779   4.540  0.2066  0.0128 -0.2824
  119POPE   D2A 1239   1.827   1.719   4.217  0.2614 -0.0846  0.2574
  119POPE   C3A 1240   1.651   1.379   3.985 -0.0171 -0.0710 -0.0199
  119POPE   C4A 1241   1.835   0.930   3.960  0.2682 -0.4318  0.1121
  119POPE   C1B 1242   1.460   1.193   4.461 -0.0282  0.3781 -0.1949
  119POPE   C2B 1243   1.343   0.889   4.140  0.3513  0.3066 -0.3119
  119POPE   C3B 1244   1.300   0.714   3.726  0.2426  0.0625  0.0728
  119POPE   C4B 1245   1.444   0.361   3.453 -0.0107 -0.2539 -0.0116
  120POPE   NH3 1246   8.249   2.497   5.156  0.0018 -0.2769 -0.1541
  120POPE   PO4 1247   7.973   2.519   4.965 -0.0521 -0.0953 -0.2277
  120POPE   GL1 1248   7.889   2.601   4.578 -0.2360 -0.3680 -0.4840
  120POPE   GL2 1249   7.769   2.834   4.626  0.1089 -0.3806  0.2167
  120POPE   C1A 1250   7.774   2.751   4.133 -0.0853 -0.2226 -0.0963
  120POPE   D2A 1251   7.540   2.983   3.795  0.2608 -0.0504  0.0294
  120POPE   C3A 1252   7.553   3.073   3.249  0.1144  0.0345  0.1807
  120POPE   C4A 1253   7.736   3.193   2.851 -0.1630 -0.1702 -0.1109
  120POPE   C1B 1254   7.769   3.227   4.318 -0.5881 -0.0181  0.3211
  120POPE   C2B 1255   7.964   3.633   4.204  0.3108  0.0832 -0.1577
  120POPE   C3B 1256   8.227   3.666   3.823  0.0944 -0.2538  0.1385
  120POPE   C4B 1257   8.338   3.875   3.423 -0.0041 -0.1911  0.2509
  121POPE   NH3 1258   5.781   4.550   5.774  0.2239 -0.0146  0.1760
  121POPE   PO4 1259   5.859   4.769   5.570  0.2081 -0.1109 -0.1272
  121POPE   GL1 1260   5.681   4.580   5.292 -0.2823  0.0024  0.2934
  121POPE   GL2 1261   5.565   4.700   5.129 -0.0455 -0.0747  0.1260
  121POPE   C1A 1262   5.778   4.195   5.016 -0.0261 -0.1006  0.0742
  121POPE   D2A 1263   6.038   3.847   4.880  0.0950  0.0873  0.2516
  121POPE   C3A 1264   5.954   3.733   4.457  0.1273 -0.0838 -0.1257
  121POPE   C4A 1265   5.874   3.588   4.070  0.2784  0.1925 -0.1380
  121POPE   C1B 1266   5.992   4.659   4.892  0.1829  0.2365 -0.3865
  121POPE   C2B 1267   6.141   4.304   4.605  0.1787 -0.0039 -0.2381
  121POPE   C3B 1268   6.045   4.160   4.183  0.0893 -0.1663 -0.3319
  121POPE   C4B 1269   5.883   3.986   3.778  0.0203 -0.3018  0.0814
  122POPE   NH3 1270   3.972   0.850   5.400 -0.0389 -0.0471  0.0300
  122POPE   PO4 1271   3.692   0.782   5.540  0.2150 -0.1480 -0.2249
  122POPE   GL1 1272   3.472   0.664   5.216  0.1145  0.3347  0.1449
  122POPE   GL2 1273   3.567   0.964   5.048 -0.0970  0.1987  0.1734
  122POPE   C1A 1274   3.537   0.449   4.817 -0.1793  0.1613  0.0194
  122POPE   D2A 1275   3.515   0.395   4.341 -0.0385 -0.1033  0.0430
  122POPE   C3A 1276   3.902   0.453   4.131 -0.0576 -0.1987  0.4202
  122POPE   C4A 1277   4.020   0.406   3.624 -0.2049  0.1750  0.2965
  122POPE   C1B 1278   3.782   0.912   4.615  0.1596 -0.0067 -0.2251
  122POPE   C2B 1279   3.580   0.907   4.230 -0.2024  0.0415 -0.0975
  122POPE   C3B 1280   3.493   0.691   3.819 -0.1738  0.1579 -0.2866
  122POPE   C4B 1281   3.460   0.472   3.403 -0.0780 -0.6958 -0.2195
  123POPE   NH3 1282   6.891   7.809   5.466 -0.1040 -0.4072  0.3950
  123POPE   PO4 1283   6.718   8.035   5.354 -0.0756  0.1171 -0.0453
  123POPE   GL1 1284   6.796   8.064   4.988 -0.2113  0.5245  0.0130
  123POPE   GL2 1285   6.850   8.132   4.835  0.2823 -0.0196 -0.2278
  123POPE   C1A 1286   6.825   7.701   4.679  0.0169 -0.2089  0.1468
  123POPE   D2A 1287   6.708   7.637   4.266  0.1842 -0.0410 -0.1019
  123POPE   C3A 1288   7.010   7.726   3.958  0.1198 -0.1450  0.0924
  123POPE   C4A 1289   7.397   7.736   3.690 -0.1344  0.4359  0.0591
  123POPE   C1B 1290   6.530   8.155   4.543  0.2569 -0.0219 -0.1931
  123POPE   C2B 1291   6.536   8.378   4.153 -0.0836  0.1485  0.1354
  123POPE   C3B 1292   6.353   8.747   3.908  0.2047 -0.0386 -0.0224
  123POPE   C4B 1293   6.223   9.059   3.541 -0.0092 -0.1767 -0.1868
  124POPE   NH3 1294   5.142   5.004   5.428  0.0898  0.0300 -0.0020
  124POPE   PO4 1295   5.240   4.700   5.532  0.1200 -0.0883 -0.0356
  124POPE   GL1 1296   5.208   4.435   5.249 -0.1394 -0.0735  0.1612
  124POPE   GL2 1297   4.992   4.601   5.088 -0.0618  0.0543 -0.1653
  124POPE   C1A 1298   5.298   4.401   4.802 -0.2822  0.2329 -0.0957
  124POPE   D2A 1299   5.551   4.734   4.646  0.0131  0.1585  0.3585
  124POPE   C3A 1300   5.848   4.623   4.328 -0.1362 -0.1925 -0.0618
  124POPE   C4A 1301   5.921   4.736   3.895  0.1906 -0.2009 -0.0127
  124POPE   C1B 1302   5.052   4.799   4.673 -0.1849  0.1138  0.3551
  124POPE   C2B 1303   4.984   4.879   4.228 -0.2007  0.0133 -0.2264
  124POPE   C3B 1304   5.029   5.266   4.020  0.1328  0.2116  0.4686
  124POPE   C4B 1305   4.938   5.653   3.772  0.1016 -0.1086 -0.3363
  125POPE   NH3 1306   1.214   7.124   5.743 -0.0594 -0.2181 -0.2928
  125POPE   PO4 1307   0.988   7.018   5.512 -0.0761 -0.0134 -0.0126
  125POPE   GL1 1308   1.047   6.737   5.226  0.2860 -0.3128 -0.0531
  125POPE   GL2 1309   0.776   6.680   5.083 -0.0567 -0.1867 -0.2256
  125POPE   C1A 1310   1.469   6.649   5.003  0.0039 -0.1893  0.1216
  125POPE   D2A 1311   1.645   6.609   4.568 -0.1052 -0.0100  0.0620
  125POPE   C3A 1312   1.460   6.297   4.201 -0.1062 -0.1927  0.0937
  125POPE   C4A 1313   1.093   6.120   3.992  0.0317 -0.3434 -0.0710
  125POPE   C1B 1314   1.008   6.679   4.728  0.1062 -0.2110 -0.0500
  125POPE   C2B 1315   0.877   6.979   4.408  0.0417 -0.2831 -0.2935
  125POPE   C3B 1316   0.585   7.111   4.089 -0.1526 -0.1122  0.1238
  125POPE   C4B 1317   0.322   6.927   3.776  0.0566  0.2515 -0.1991
  126POPE   NH3 1318   3.288   4.804   5.466  0.4817  0.2182  0.0263
  126POPE   PO4 1319   3.112   4.516   5.505 -0.1500  0.0154  0.1762
  126POPE   GL1 1320   2.773   4.390   5.311  0.1556  0.0435  0.2805
  126POPE   GL2 1321   2.707   4.654   5.153  0.1109 -0.1514 -0.1987
  126POPE   C1A 1322   2.624   4.237   4.893  0.1513 -0.1672  0.0485
  126POPE   D2A 1323   2.372   4.195   4.505  0.1124 -0.1313  0.1253
  126POPE   C3A 1324   2.419   4.466   4.127 -0.2067  0.1933  0.1266
  126POPE   C4A 1325   2.325   4.839   3.871  0.0178 -0.0285  0.2275
  126POPE   C1B 1326   2.617   4.848   4.705  0.1476 -0.0591 -0.0032
  126POPE   C2B 1327   2.515   5.054   4.352  0.0406 -0.0955 -0.0425
  126POPE   C3B 1328   2.602   5.318   3.908  0.0754 -0.0372 -0.0003
  126POPE   C4B 1329   2.877   5.629   3.781  0.1318 -0.2573 -0.0245
  127POPE   NH3 1330   6.191   4.480   6.066 -0.0212  0.0040 -0.0307
  127POPE   PO4 1331   6.230   4.405   5.756  0.1764 -0.1010 -0.2123
  127POPE   GL1 1332   6.229   4.555   5.377 -0.0594  0.1218 -0.2430
  127POPE   GL2 1333   6.168   4.314   5.236 -0.3697 -0.1276  0.1248
  127POPE   C1A 1334   6.618   4.665   5.106 -0.1975 -0.2223  0.0712
  127POPE   D2A 1335   6.865   4.946   4.868  0.0493 -0.3771 -0.0546
  127POPE   C3A 1336   6.866   4.791   4.427 -0.4086 -0.0877  0.3114
  127POPE   C4A 1337   6.915   4.433   4.086 -0.1374 -0.0328  0.1938
  127POPE   C1B 1338   6.470   4.062   4.934  0.0381  0.0195 -0.4085
  127POPE   C2B 1339   6.496   3.720   4.616  0.0739 -0.0355  0.1415
  127POPE   C3B 1340   6.405   3.678   4.192 -0.0353 -0.1427  0.0357
  127POPE   C4B 1341   6.282   3.607   3.737 -0.0442 -0.0134  0.0119
  128POPE   NH3 1342   6.237   6.014   6.109 -0.1390  0.3086  0.1077
  128POPE   PO4 1343   6.143   5.872   5.853  0.0735 -0.1032 -0.2559
  128POPE   GL1 1344   6.243   5.999   5.513 -0.0360  0.1107 -0.1360
  128POPE   GL2 1345   6.198   5.776   5.325  0.0011  0.0147  0.1690
  128POPE   C1A 1346   6.691   5.925   5.413 -0.0664 -0.0895 -0.3353
  128POPE   D2A 1347   7.006   5.809   5.096  0.0397  0.1624 -0.1261
  128POPE   C3A 1348   6.864   5.519   4.776 -0.2991  0.2008  0.0246
  128POPE   C4A 1349   6.704   5.266   4.442 -0.2718  0.0754  0.2808
  128POPE   C1B 1350   6.181   5.752   4.809 -0.0579 -0.0753  0.0024
  128POPE   C2B 1351   6.229   5.529   4.393 -0.0889 -0.0197 -0.1144
  128POPE   C3B 1352   6.418   5.564   3.990  0.1256 -0.2318  0.2088
  128POPE   C4B 1353   6.734   5.744   3.698  0.2992  0.1669 -0.0117
  129POPE   NH3 1354   5.420   1.769   5.237  0.1229 -0.1055 -0.0901
  129POPE   PO4 1355   5.672   1.887   5.091  0.3302  0.4001 -0.3891
  129POPE   GL1 1356   5.498   1.811   4.708  0.2027  0.0603 -0.0914
  129POPE   GL2 1357   5.357   1.565   4.673  0.0476  0.0072  0.1362
  129POPE   C1A 1358   5.218   2.039   4.416  0.0253  0.1308  0.0307
  129POPE   D2A 1359   5.200   2.494   4.321 -0.1365  0.3499 -0.1314
  129POPE   C3A 1360   4.902   2.398   4.017 -0.6112  0.1168  0.2267
  129POPE   C4A 1361   4.603   2.193   3.756  0.1667 -0.0020 -0.0938
  129POPE   C1B 1362   4.939   1.468   4.501  0.0510  0.3439  0.3198
  129POPE   C2B 1363   4.594   1.216   4.438  0.2651 -0.2724 -0.1273
  129POPE   C3B 1364   4.140   1.358   4.351 -0.0137  0.0417 -0.1248
  129POPE   C4B 1365   3.744   1.395   4.138  0.0422  0.0869  0.1950
  130POPE   NH3 1366   7.737   2.848   5.229  0.1619 -0.1863 -0.2481
  130POPE   PO4 1367   7.547   3.097   5.346 -0.0703  0.3729  0.2943
  130POPE   GL1 1368   7.504   3.338   5.071 -0.2385  0.2602 -0.2238
  130POPE   GL2 1369   7.272   3.407   5.055 -0.1056  0.1943  0.0704
  130POPE   C1A 1370   7.849   3.392   4.785  0.1179 -0.2120 -0.2429
  130POPE   D2A 1371   8.229   3.308   4.626 -0.1256  0.0009 -0.0432
  130POPE   C3A 1372   8.335   3.285   4.153 -0.2050  0.1881 -0.2733
  130POPE   C4A 1373   8.589   3.349   3.739 -0.1019  0.2672  0.1891
  130POPE   C1B 1374   7.370   3.259   4.648  0.0472 -0.1277  0.0590
  130POPE   C2B 1375   7.184   3.135   4.264  0.3673  0.2092  0.0739
  130POPE   C3B 1376   7.023   2.952   3.828 -0.1439 -0.0750 -0.1851
  130POPE   C4B 1377   7.159   2.715   3.432 -0.0972  0.2495  0.3074
  131POPE   NH3 1378   1.333   2.310   5.323 -0.1224 -0.0886  0.1450
  131POPE   PO4 1379   1.587   2.476   5.247 -0.0109  0.1221  0.0002
  131POPE   GL1 1380   1.799   2.507   4.865 -0.1990 -0.1479  0.2270
  131POPE   GL2 1381   1.518   2.313   4.757 -0.2407 -0.0961 -0.0178
  131POPE   C1A 1382   1.920   2.831   4.557 -0.1527  0.0589  0.0365
  131POPE   D2A 1383   1.887   2.793   4.089  0.0879  0.0889  0.6137
  131POPE   C3A 1384   1.745   3.270   3.915 -0.1659 -0.1889 -0.0341
  131POPE   C4A 1385   1.588   3.446   3.532 -0.2242  0.0476  0.0097
  131POPE   C1B 1386   1.582   2.221   4.273 -0.2747  0.4197  0.2036
  131POPE   C2B 1387   1.558   2.162   3.795  0.0146 -0.0659  0.0077
  131POPE   C3B 1388   1.923   2.101   3.511 -0.0574  0.1241  0.2008
  131POPE   C4B 1389   2.093   2.386   3.212  0.0636 -0.1464 -0.0731
  132POPE   NH3 1390   2.078   5.423   5.900 -0.2830 -0.1183  0.1129
  132POPE   PO4 1391   2.312   5.224   5.731 -0.0305  0.0034  0.2155
  132POPE   GL1 1392   2.162   5.246   5.468  0.2182  0.6337  0.0741
  132POPE   GL2 1393   1.911   5.141   5.433  0.2856  0.0798  0.0893
  132POPE   C1A 1394   2.170   5.186   5.003 -0.2468  0.1235 -0.2061
  132POPE   D2A 1395   2.094   5.291   4.570  0.2114 -0.5045 -0.1238
  132POPE   C3A 1396   1.998   5.058   4.177  0.1855 -0.1316  0.1695
  132POPE   C4A 1397   1.815   4.831   3.807 -0.2958 -0.1815  0.2663
  132POPE   C1B 1398   1.825   4.785   5.117  0.1105 -0.0208 -0.2880
  132POPE   C2B 1399   1.729   4.446   4.789  0.3017 -0.0537  0.0856
  132POPE   C3B 1400   1.896   4.267   4.297  0.0328  0.2024 -0.1777
  132POPE   C4B 1401   1.940   4.144   3.901  0.0024 -0.1614 -0.4284
  133POPE   NH3 1402   6.332   7.698   5.374  0.0383 -0.2321  0.2714
  133POPE   PO4 1403   6.541   7.459   5.229  0.0671  0.0306  0.0085
  133POPE   GL1 1404   6.410   7.501   4.841 -0.3660  0.1745  0.3207
  133POPE   GL2 1405   6.353   7.820   4.878  0.0203  0.3380  0.2295
  133POPE   C1A 1406   6.183   7.295   4.458  0.0219 -0.2912 -0.0119
  133POPE   D2A 1407   5.882   7.443   4.104 -0.0072 -0.0742 -0.3002
  133POPE   C3A 1408   5.646   7.201   3.792  0.1232  0.2718  0.1889
  133POPE   C4A 1409   5.537   6.887   3.454 -0.2005 -0.1357  0.0774
  133POPE   C1B 1410   6.249   7.741   4.405 -0.0754 -0.3375  0.0561
  133POPE   C2B 1411   6.165   7.921   4.045  0.0603  0.1437  0.2106
  133POPE   C3B 1412   5.945   7.913   3.609  0.0191 -0.1423  0.1030
  133POPE   C4B 1413   5.597   8.226   3.494 -0.1362  0.1862  0.4687
  134POPE   NH3 1414   7.299   2.831   5.045 -0.1571  0.1102  0.0352
  134POPE   PO4 1415   7.437   2.596   4.898  0.0411 -0.1243 -0.0672
  134POPE   GL1 1416   7.142   2.491   4.594  0.0161 -0.0717  0.0164
  134POPE   GL2 1417   7.351   2.682   4.429 -0.1544 -0.0525  0.1369
  134POPE   C1A 1418   6.712   2.293   4.608  0.2052  0.0045 -0.1281
  134POPE   D2A 1419   6.319   2.300   4.391  0.0738  0.2301  0.0640
  134POPE   C3A 1420   6.307   2.411   3.872  0.0016  0.0110 -0.3094
  134POPE   C4A 1421   5.958   2.329   3.594  0.0454 -0.1920  0.2256
  134POPE   C1B 1422   7.324   2.344   4.133 -0.0488  0.1275 -0.0749
  134POPE   C2B 1423   7.505   1.928   4.039 -0.1557 -0.0865 -0.2377
  134POPE   C3B 1424   7.820   1.718   3.776 -0.1086 -0.3461  0.2191
  134POPE   C4B 1425   8.128   1.774   3.466 -0.1262  0.1027  0.1917
  135POPE   NH3 1426   2.151   4.029   6.291  0.0499  0.3291 -0.5279
  135POPE   PO4 1427   1.941   4.011   6.020  0.1268 -0.0660 -0.3147
  135POPE   GL1 1428   1.925   4.100   5.596  0.1231 -0.0692  0.0301
  135POPE   GL2 1429   2.008   3.895   5.381  0.1578 -0.1576  0.0056
  135POPE   C1A 1430   2.005   4.373   5.218 -0.1759 -0.1157 -0.0501
  135POPE   D2A 1431   2.236   4.608   4.889 -0.0198  0.1464 -0.0040
  135POPE   C3A 1432   1.901   4.820   4.570  0.0052 -0.1395 -0.0572
  135POPE   C4A 1433   1.511   4.956   4.231  0.1789  0.3896  0.2105
  135POPE   C1B 1434   1.878   3.895   4.948  0.0974  0.0640 -0.0762
  135POPE   C2B 1435   2.092   3.801   4.566 -0.0988  0.1468 -0.2074
  135POPE   C3B 1436   1.982   3.684   4.143 -0.0002  0.1638  0.0995
  135POPE   C4B 1437   1.614   3.826   3.814  0.0316 -0.0234  0.0391
  136POPE   NH3 1438   4.310   8.717   5.637  0.0487  0.0104 -0.1212
  136POPE   PO4 1439   4.374   8.965   5.446  0.0653 -0.0738  0.1057
  136POPE   GL1 1440   4.463   9.160   5.101 -0.2949  0.0184 -0.2937
  136POPE   GL2 1441   4.754   9.252   5.053 -0.0393  0.2014 -0.0979
  136POPE   C1A 1442   4.592   8.912   4.725 -0.1712 -0.0803 -0.2575
  136POPE   D2A 1443   4.944   8.568   4.576 -0.0224 -0.0490 -0.1435
  136POPE   C3A 1444   4.866   8.433   4.130  0.1874  0.1266  0.2730
  136POPE   C4A 1445   4.636   8.226   3.784  0.1559 -0.0024  0.2039
  136POPE   C1B 1446   4.487   9.370   4.705  0.1175  0.1528 -0.0766
  136POPE   C2B 1447   4.393   9.466   4.261  0.3402  0.0204  0.3114
  136POPE   C3B 1448   4.518   9.765   3.930 -0.1656  0.1720  0.2335
  136POPE   C4B 1449   4.445   9.773   3.491 -0.4216  0.1194  0.0318
  137POPE   NH3 1450   4.153   7.838   5.741  0.0822 -0.0408  0.1753
  137POPE   PO4 1451   4.227   8.118   5.589  0.0828 -0.0694  0.0167
  137POPE   GL1 1452   4.292   7.980   5.203 -0.2647  0.0385 -0.0300
  137POPE   GL2 1453   4.532   8.093   5.019 -0.0952 -0.2853 -0.1035
  137POPE   C1A 1454   3.937   7.911   4.897 -0.2354  0.1113  0.0996
  137POPE   D2A 1455   3.656   7.710   4.488 -0.3605  0.0817  0.0738
  137POPE   C3A 1456   3.683   7.787   4.044  0.0986 -0.1296  0.1244
  137POPE   C4A 1457   4.040   7.827   3.650 -0.0254  0.0127 -0.0350
  137POPE   C1B 1458   4.381   7.854   4.677  0.1695  0.0111 -0.0496
  137POPE   C2B 1459   4.182   7.898   4.265  0.0751  0.1437  0.1383
  137POPE   C3B 1460   3.927   8.196   4.069  0.0540 -0.4782 -0.0305
  137POPE   C4B 1461   4.140   8.367   3.697 -0.0970 -0.1938 -0.2399
  138POPE   NH3 1462   4.128   1.917   5.174  0.1293 -0.2656 -0.0617
  138POPE   PO4 1463   4.090   1.647   5.410 -0.3658 -0.2241  0.0363
  138POPE   GL1 1464   3.902   1.548   5.058 -0.3013  0.0676  0.1132
  138POPE   GL2 1465   4.062   1.400   4.925 -0.1235 -0.5524  0.1302
  138POPE   C1A 1466   3.596   1.439   4.685 -0.1053 -0.1320 -0.1757
  138POPE   D2A 1467   3.268   1.365   4.302  0.1783  0.1186  0.0618
  138POPE   C3A 1468   3.290   1.309   3.812 -0.0398  0.0779  0.2608
  138POPE   C4A 1469   3.596   1.355   3.550  0.1842  0.0841  0.1355
  138POPE   C1B 1470   4.377   1.587   4.747  0.1039 -0.0202 -0.1572
  138POPE   C2B 1471   4.594   1.812   4.424  0.0866 -0.0284  0.2155
  138POPE   C3B 1472   4.885   1.812   4.045  0.1984 -0.2550 -0.0366
  138POPE   C4B 1473   5.309   1.588   3.906 -0.2593  0.1472  0.0434
  139POPE   NH3 1474   6.054   7.284   5.089 -0.3931 -0.2519  0.1567
  139POPE   PO4 1475   5.826   7.465   5.156 -0.2825 -0.1138 -0.0959
  139POPE   GL1 1476   5.577   7.403   4.945 -0.1341 -0.1831  0.1838
  139POPE   GL2 1477   5.812   7.485   4.688 -0.1104 -0.0113 -0.1167
  139POPE   C1A 1478   5.202   7.608   4.738 -0.0716  0.1833 -0.2769
  139POPE   D2A 1479   5.244   7.846   4.265  0.0519 -0.1961 -0.0522
  139POPE   C3A 1480   5.524   7.695   3.863  0.0343  0.1051  0.0962
  139POPE   C4A 1481   5.469   7.532   3.436 -0.1463 -0.0552  0.0477
  139POPE   C1B 1482   5.773   7.840   4.370 -0.0021  0.2130  0.1724
  139POPE   C2B 1483   5.729   8.126   4.066  0.0246  0.1709  0.0147
  139POPE   C3B 1484   5.644   8.504   3.863  0.3292  0.1755 -0.2760
  139POPE   C4B 1485   5.706   8.923   3.671  0.1051 -0.1556 -0.0339
  140POPE   NH3 1486   8.745   5.851   5.714  0.1100  0.0442  0.2062
  140POPE   PO4 1487   8.692   6.162   5.624  0.0546 -0.0623 -0.0910
  140POPE   GL1 1488   8.487   6.243   5.274  0.2947 -0.1823  0.2636
  140POPE   GL2 1489   8.609   6.153   5.100 -0.0667 -0.1032  0.1580
  140POPE   C1A 1490   8.351   6.611   4.986 -0.1700  0.0037  0.2073
  140POPE   D2A 1491   8.366   6.900   4.629  0.4055 -0.0732  0.0274
  140POPE   C3A 1492   8.734   6.989   4.459  0.3791 -0.0208 -0.2239
  140POPE   C4A 1493   8.859   7.363   4.324  0.5155  0.1174 -0.1572
  140POPE   C1B 1494   8.658   6.320   4.671  0.0358 -0.0075  0.1303
  140POPE   C2B 1495   8.474   6.529   4.292 -0.0323 -0.1274 -0.0518
  140POPE   C3B 1496   8.491   6.908   4.055  0.3080 -0.0048 -0.0291
  140POPE   C4B 1497   8.379   6.957   3.643 -0.1046 -0.2010  0.0249
  141POPE   NH3 1498   8.888   7.847   5.522  0.1638  0.3270 -0.0586
  141POPE   PO4 1499   9.140   7.844   5.363  0.3642 -0.2262 -0.1063
  141POPE   GL1 1500   9.309   7.836   4.966 -0.2112 -0.1304 -0.0258
  141POPE   GL2 1501   9.067   7.833   4.866  0.2313  0.4541  0.0495
  141POPE   C1A 1502   9.392   7.811   4.497  0.3676  0.0102  0.1454
  141POPE   D2A 1503   9.154   7.982   4.096  0.2441  0.1999  0.2326
  141POPE   C3A 1504   8.842   7.906   3.725  0.1710 -0.0916 -0.1663
  141POPE   C4A 1505   8.706   8.278   3.432  0.0342  0.1049  0.0608
  141POPE   C1B 1506   9.124   8.192   4.623 -0.2037  0.2061  0.1968
  141POPE   C2B 1507   9.554   8.328   4.454 -0.0308  0.3232 -0.1804
  141POPE   C3B 1508   9.904   8.509   4.166  0.0904 -0.1847 -0.2391
  141POPE   C4B 1509   9.984   8.952   4.015  0.0082 -0.0121  0.0788
  142POPE   NH3 1510   6.093   6.775   5.752 -0.2771  0.2650  0.1180
  142POPE   PO4 1511   6.137   6.464   5.807  0.0889  0.1241 -0.0639
  142POPE   GL1 1512   6.091   6.454   5.386 -0.0253 -0.2546 -0.4578
  142POPE   GL2 1513   6.420   6.412   5.405 -0.2039  0.1981  0.1203
  142POPE   C1A 1514   5.939   6.160   5.075 -0.0672  0.0978 -0.1538
  142POPE   D2A 1515   5.759   5.990   4.683  0.0037 -0.2938 -0.0734
  142POPE   C3A 1516   5.688   6.067   4.188  0.1753 -0.4412 -0.1658
  142POPE   C4A 1517   5.471   6.261   3.825  0.0761 -0.3884 -0.0669
  142POPE   C1B 1518   6.799   6.509   5.112 -0.0060 -0.1367  0.0219
  142POPE   C2B 1519   6.800   6.561   4.690 -0.0364 -0.1620  0.0927
  142POPE   C3B 1520   6.620   6.420   4.278  0.3909 -0.0351 -0.2523
  142POPE   C4B 1521   6.245   6.561   3.991 -0.3739 -0.0568  0.0530
  143POPE   NH3 1522   9.133   0.190   5.714  0.1695 -0.0823  0.0036
  143POPE   PO4 1523   8.849   0.055   5.543 -0.3928  0.1723 -0.0418
  143POPE   GL1 1524   8.823   0.262   5.133 -0.4339  0.2038  0.0057
  143POPE   GL2 1525   8.577   0.231   5.084 -0.2634 -0.1799 -0.0010
  143POPE   C1A 1526   8.808   0.550   4.783 -0.1366 -0.1602  0.2744
  143POPE   D2A 1527   8.969   0.481   4.395 -0.3380 -0.0204 -0.0275
  143POPE   C3A 1528   9.345   0.633   4.300 -0.0642  0.2563  0.2351
  143POPE   C4A 1529   9.362   1.066   4.179  0.2115  0.2922  0.0041
  143POPE   C1B 1530   8.487   0.092   4.661  0.3687 -0.3503  0.3244
  143POPE   C2B 1531   8.436  -0.016   4.255  0.1431 -0.3049 -0.0491
  143POPE   C3B 1532   8.162  -0.157   3.938  0.3050 -0.0329 -0.2082
  143POPE   C4B 1533   7.880  -0.382   3.636  0.1670 -0.0836  0.0953
  144POPC   NC3 1534   2.009   8.626   1.834  0.2934 -0.0703  0.1514
  144POPC   PO4 1535   2.113   8.909   1.615 -0.1374 -0.1589 -0.0709
  144POPC   GL1 1536   2.151   9.028   2.046 -0.3100 -0.3293 -0.0117
  144POPC   GL2 1537   1.966   9.238   2.227 -0.2675  0.2649  0.0708
  144POPC   C1A 1538   1.955   8.711   2.310  0.0733 -0.1852 -0.1466
  144POPC   D2A 1539   1.980   8.305   2.573  0.3131 -0.1060  0.0471
  144POPC   C3A 1540   2.000   8.236   3.036  0.1678 -0.1594  0.4369
  144POPC   C4A 1541   1.873   8.157   3.498  0.0633 -0.1008 -0.1028
  144POPC   C1B 1542   1.834   9.066   2.611  0.1774 -0.0167 -0.0313
  144POPC   C2B 1543   1.764   8.763   2.893 -0.1360 -0.0923 -0.0099
  144POPC   C3B 1544   1.857   8.636   3.367 -0.0221 -0.1389 -0.0738
  144POPC   C4B 1545   2.229   8.915   3.487  0.1119 -0.0366  0.2743
  145POPC   NC3 1546   2.396   2.622   1.392 -0.0790 -0.1593  0.0166
  145POPC   PO4 1547   2.026   2.463   1.461 -0.1746  0.0411 -0.0567
  145POPC   GL1 1548   2.124   2.306   1.802  0.0529 -0.2690 -0.0376
  145POPC   GL2 1549   2.414   2.258   1.914 -0.0485 -0.1212 -0.2265
  145POPC   C1A 1550   2.106   2.462   2.267 -0.0135  0.2331  0.0982
  145POPC   D2A 1551   2.286   2.523   2.720  0.0015  0.2093 -0.0510
  145POPC   C3A 1552   2.112   2.880   2.956 -0.0151 -0.1616  0.0123
  145POPC   C4A 1553   2.028   3.187   3.300 -0.0652  0.0161 -0.0899
  145POPC   C1B 1554   2.590   2.201   2.353 -0.1511 -0.0929 -0.2697
  145POPC   C2B 1555   2.577   2.108   2.728 -0.1506 -0.3004 -0.0975
  145POPC   C3B 1556   2.391   1.988   3.118  0.1196  0.0135  0.3394
  145POPC   C4B 1557   2.223   1.642   3.304  0.4249 -0.0938 -0.1248
  146POPC   NC3 1558   1.415   7.698   2.297 -0.0488 -0.0990  0.1835
  146POPC   PO4 1559   1.208   7.406   2.166 -0.0642  0.0098  0.2899
  146POPC   GL1 1560   1.042   7.265   2.554 -0.2882  0.3336 -0.0600
  146POPC   GL2 1561   0.825   7.164   2.418  0.2835  0.0035 -0.2660
  146POPC   C1A 1562   1.056   6.955   2.873 -0.4850  0.1520  0.0026
  146POPC   D2A 1563   1.189   6.833   3.317 -0.0780  0.3989  0.1434
  146POPC   C3A 1564   1.690   6.772   3.302  0.0346 -0.0041 -0.1736
  146POPC   C4A 1565   1.928   6.727   2.877  0.0468  0.1373  0.1996
  146POPC   C1B 1566   0.620   7.199   2.816  0.0565  0.1427  0.2312
  146POPC   C2B 1567   0.652   7.123   3.289  0.0553 -0.1799 -0.2242
  146POPC   C3B 1568   0.824   6.944   3.665 -0.2177  0.2083 -0.0200
  146POPC   C4B 1569   1.164   7.134   3.910 -0.0026  0.1087  0.1295
  147POPC   NC3 1570   4.021   5.329   1.630 -0.0625 -0.0694  0.0594
  147POPC   PO4 1571   4.013   5.696   1.593 -0.0576  0.1537 -0.0363
  147POPC   GL1 1572   3.844   5.685   1.923  0.2248 -0.0113 -0.0169
  147POPC   GL2 1573   3.864   5.505   2.122  0.1658 -0.0443  0.2898
  147POPC   C1A 1574   3.787   5.981   2.304 -0.2700  0.0098  0.1519
  147POPC   D2A 1575   3.712   6.053   2.771 -0.1664  0.3085 -0.1415
  147POPC   C3A 1576   3.300   5.909   3.000 -0.1053  0.0152 -0.0905
  147POPC   C4A 1577   3.048   5.918   3.411 -0.2702 -0.1135 -0.4159
  147POPC   C1B 1578   3.800   5.561   2.572 -0.1854  0.0470 -0.5677
  147POPC   C2B 1579   3.842   5.630   3.025  0.0140 -0.1988  0.1427
  147POPC   C3B 1580   3.631   5.558   3.427 -0.0649 -0.2682  0.3280
  147POPC   C4B 1581   3.576   5.923   3.771  0.1282  0.0596  0.2526
  148POPC   NC3 1582   1.658   3.194   1.615  0.5160  0.0580 -0.1015
  148POPC   PO4 1583   1.402   3.468   1.487  0.1669  0.2086  0.0629
  148POPC   GL1 1584   1.536   3.514   1.912  0.2424  0.2284 -0.1113
  148POPC   GL2 1585   1.323   3.621   2.075  0.1047  0.1221  0.0119
  148POPC   C1A 1586   1.627   3.211   2.288 -0.2031 -0.2230  0.0841
  148POPC   D2A 1587   1.811   3.249   2.741  0.0974 -0.2079  0.2530
  148POPC   C3A 1588   1.533   3.260   3.075 -0.0172  0.1539  0.0342
  148POPC   C4A 1589   1.157   3.217   3.329  0.0254  0.1700 -0.1143
  148POPC   C1B 1590   1.743   3.727   2.239  0.0332 -0.0484  0.1065
  148POPC   C2B 1591   1.867   3.753   2.706 -0.1471  0.0434 -0.4865
  148POPC   C3B 1592   1.823   3.726   3.222 -0.0476 -0.3440  0.0597
  148POPC   C4B 1593   2.064   3.651   3.641 -0.1793  0.0569 -0.0858
  149POPC   NC3 1594   0.563   3.088   2.133 -0.1157  0.1994  0.1334
  149POPC   PO4 1595   0.333   3.291   1.934 -0.1193  0.0470 -0.0651
  149POPC   GL1 1596   0.278   3.512   2.356  0.0090 -0.0049 -0.2114
  149POPC   GL2 1597   0.062   3.669   2.417 -0.1649  0.0720 -0.0556
  149POPC   C1A 1598   0.420   3.173   2.632  0.0256  0.3306 -0.0864
  149POPC   D2A 1599   0.647   3.119   3.029 -0.0805 -0.0493 -0.0249
  149POPC   C3A 1600   0.996   3.428   2.881  0.0511  0.1676  0.1034
  149POPC   C4A 1601   1.371   3.557   2.679 -0.0048 -0.1065 -0.2189
  149POPC   C1B 1602  -0.047   3.403   2.799  0.2188 -0.3146 -0.2100
  149POPC   C2B 1603   0.222   3.373   3.213 -0.2056 -0.0015  0.0950
  149POPC   C3B 1604   0.512   3.033   3.482  0.0393 -0.1456  0.3324
  149POPC   C4B 1605   0.653   3.011   3.930  0.1444 -0.3006 -0.1783
  150POPC   NC3 1606   1.029   5.069   1.886 -0.0471  0.0390  0.0820
  150POPC   PO4 1607   1.288   4.751   1.891  0.0832 -0.0416  0.0925
  150POPC   GL1 1608   1.217   4.516   2.238 -0.1521 -0.1197  0.1649
  150POPC   GL2 1609   0.992   4.715   2.356 -0.3029  0.1436  0.3210
  150POPC   C1A 1610   1.501   4.687   2.573  0.2491 -0.3950 -0.1460
  150POPC   D2A 1611   1.487   4.896   2.998 -0.0294 -0.0664  0.0262
  150POPC   C3A 1612   1.409   4.796   3.444  0.2003  0.0356 -0.1854
  150POPC   C4A 1613   1.277   4.675   3.884 -0.1558  0.2481 -0.1568
  150POPC   C1B 1614   1.100   4.579   2.820 -0.1053 -0.2609  0.0405
  150POPC   C2B 1615   1.404   4.427   3.125  0.0222  0.0172  0.1128
  150POPC   C3B 1616   1.675   4.160   3.354  0.0155 -0.0836 -0.0382
  150POPC   C4B 1617   2.095   4.108   3.165 -0.0498 -0.1958 -0.1383
  151POPC   NC3 1618   5.082   6.724   1.609  0.0408  0.2167  0.3330
  151POPC   PO4 1619   4.691   6.697   1.433 -0.6592 -0.1014 -0.2449
  151POPC   GL1 1620   4.548   6.551   1.792 -0.1194  0.1541 -0.0616
  151POPC   GL2 1621   4.279   6.742   1.866  0.0136  0.2187 -0.1239
  151POPC   C1A 1622   4.855   6.405   2.103 -0.1289 -0.0006  0.0499
  151POPC   D2A 1623   5.242   6.320   2.421  0.1510 -0.0068 -0.0589
  151POPC   C3A 1624   5.036   6.281   2.807  0.1631  0.1399  0.1342
  151POPC   C4A 1625   4.729   6.307   3.115 -0.1250 -0.0297  0.0735
  151POPC   C1B 1626   4.500   6.661   2.300  0.0204  0.1965 -0.0841
  151POPC   C2B 1627   4.692   6.634   2.702 -0.1622  0.2882 -0.0883
  151POPC   C3B 1628   4.595   6.848   3.088 -0.0911  0.2002 -0.0707
  151POPC   C4B 1629   4.662   6.993   3.510 -0.3991 -0.0243  0.3012
  152POPC   NC3 1630   3.368   0.377   0.664  0.2451 -0.4843 -0.0346
  152POPC   PO4 1631   3.525   0.254   1.017 -0.0143  0.1901  0.1462
  152POPC   GL1 1632   3.555   0.401   1.375 -0.5148  0.3499 -0.3525
  152POPC   GL2 1633   3.722   0.635   1.441  0.2357  0.2327 -0.3672
  152POPC   C1A 1634   3.670   0.218   1.790  0.0881  0.0115 -0.1686
  152POPC   D2A 1635   3.753   0.131   2.242  0.3104 -0.2901  0.0956
  152POPC   C3A 1636   3.843   0.189   2.686  0.3100  0.1727 -0.0912
  152POPC   C4A 1637   4.209   0.150   2.943  0.1312  0.1436  0.0109
  152POPC   C1B 1638   3.849   0.756   1.845 -0.0012 -0.0006  0.0050
  152POPC   C2B 1639   3.842   0.634   2.240 -0.1258  0.0755  0.1137
  152POPC   C3B 1640   3.842   0.652   2.712 -0.3448  0.2557 -0.1274
  152POPC   C4B 1641   3.923   0.505   3.139  0.0936  0.0657  0.0147
  153POPC   NC3 1642   8.902   2.271   2.071  0.2333 -0.0144  0.2486
  153POPC   PO4 1643   8.923   2.132   1.714  0.0312  0.0428 -0.0821
  153POPC   GL1 1644   9.067   1.820   1.959 -0.2381 -0.1603  0.3638
  153POPC   GL2 1645   9.239   1.539   2.060  0.1356  0.2273 -0.2013
  153POPC   C1A 1646   9.065   1.869   2.448 -0.0355 -0.2848 -0.1664
  153POPC   D2A 1647   9.069   1.981   2.842 -0.4097  0.0355 -0.4834
  153POPC   C3A 1648   9.414   2.106   3.143 -0.0089 -0.1580  0.0957
  153POPC   C4A 1649   9.325   2.069   3.594  0.1609 -0.0438 -0.2523
  153POPC   C1B 1650   8.964   1.403   2.453 -0.1512  0.0282 -0.1118
  153POPC   C2B 1651   8.835   1.009   2.687 -0.1109 -0.0368 -0.1762
  153POPC   C3B 1652   8.496   0.709   2.767  0.0596 -0.0536 -0.2214
  153POPC   C4B 1653   8.273   0.340   2.601  0.0476 -0.2045 -0.0696
  154POPC   NC3 1654   3.179   6.502   2.009  0.1538 -0.1629  0.0267
  154POPC   PO4 1655   2.839   6.361   2.050 -0.1982 -0.2197 -0.0673
  154POPC   GL1 1656   2.770   6.481   2.398 -0.1585 -0.1634  0.0631
  154POPC   GL2 1657   2.948   6.673   2.492  0.0902  0.0542  0.2168
  154POPC   C1A 1658   2.517   6.174   2.649  0.0722  0.1403 -0.3298
  154POPC   D2A 1659   2.376   5.743   2.484  0.2178  0.0449  0.2203
  154POPC   C3A 1660   2.276   5.545   2.935 -0.2023 -0.0465 -0.0125
  154POPC   C4A 1661   2.014   5.232   3.050 -0.2709  0.0383 -0.0516
  154POPC   C1B 1662   3.012   6.314   2.719 -0.1643 -0.1863 -0.0725
  154POPC   C2B 1663   2.834   6.007   2.964  0.3197  0.1797 -0.0890
  154POPC   C3B 1664   2.650   5.707   3.268  0.2417 -0.0965  0.4010
  154POPC   C4B 1665   2.259   5.583   3.439 -0.1319  0.1130  0.1622
  155POPC   NC3 1666   9.030   5.855   2.044  0.1718  0.0423 -0.3213
  155POPC   PO4 1667   9.350   5.968   1.805 -0.3249  0.2809  0.4004
  155POPC   GL1 1668   9.420   5.959   2.249  0.0024  0.1251  0.3772
  155POPC   GL2 1669   9.625   6.100   2.317 -0.3179  0.0495  0.0027
  155POPC   C1A 1670   9.246   5.972   2.686 -0.1132 -0.2111 -0.1887
  155POPC   D2A 1671   9.134   5.956   3.139 -0.1012 -0.2130 -0.1330
  155POPC   C3A 1672   9.115   6.072   3.556 -0.0596  0.0181  0.1718
  155POPC   C4A 1673   9.294   6.435   3.679  0.1500 -0.1103 -0.2153
  155POPC   C1B 1674   9.746   5.966   2.697 -0.2198  0.1572 -0.0446
  155POPC   C2B 1675   9.582   5.699   3.038 -0.1562  0.1003  0.0182
  155POPC   C3B 1676   9.425   5.652   3.421  0.0327  0.2226  0.0076
  155POPC   C4B 1677   9.181   5.635   3.801  0.0168  0.1020  0.2228
  156POPC   NC3 1678   4.760   1.617   1.378 -0.3773 -0.1099  0.1077
  156POPC   PO4 1679   4.550   1.885   1.565 -0.2192  0.0578 -0.0279
  156POPC   GL1 1680   4.699   1.834   1.894  0.3411  0.1273 -0.0086
  156POPC   GL2 1681   4.939   2.009   1.902  0.1555  0.0059 -0.1395
  156POPC   C1A 1682   4.433   1.931   2.257  0.3928  0.1407  0.0758
  156POPC   D2A 1683   4.073   1.880   2.601 -0.0366 -0.2004 -0.0608
  156POPC   C3A 1684   4.075   2.036   3.019  0.1535  0.2397  0.0196
  156POPC   C4A 1685   4.317   2.141   3.396  0.1848  0.1358 -0.1549
  156POPC   C1B 1686   4.873   2.001   2.444 -0.0326 -0.1032 -0.0639
  156POPC   C2B 1687   5.074   2.335   2.785 -0.0877 -0.0187  0.2425
  156POPC   C3B 1688   5.068   2.709   3.099  0.0043  0.1381  0.0042
  156POPC   C4B 1689   5.295   2.986   3.407 -0.1042 -0.1032 -0.0183
  157POPC   NC3 1690   4.466   4.009   1.645  0.1812  0.0447 -0.1551
  157POPC   PO4 1691   4.343   4.346   1.412 -0.0277  0.0765  0.0484
  157POPC   GL1 1692   4.222   4.476   1.776 -0.3200 -0.0193 -0.0366
  157POPC   GL2 1693   4.105   4.720   1.709 -0.2479  0.1853  0.1564
  157POPC   C1A 1694   3.892   4.557   2.154 -0.2318  0.0091  0.0214
  157POPC   D2A 1695   3.708   4.274   2.426 -0.0634  0.0609 -0.0301
  157POPC   C3A 1696   3.899   3.895   2.599 -0.0288  0.1535  0.1681
  157POPC   C4A 1697   3.787   3.576   2.927 -0.0548 -0.2702 -0.0490
  157POPC   C1B 1698   3.857   4.986   1.931 -0.1520  0.2587  0.0862
  157POPC   C2B 1699   3.835   5.077   2.394 -0.0929 -0.0181  0.0642
  157POPC   C3B 1700   3.474   5.010   2.705  0.3221 -0.1016 -0.1568
  157POPC   C4B 1701   3.093   5.036   3.000  0.1193 -0.0169 -0.1221
  158POPC   NC3 1702   4.167   9.104   1.658  0.2273  0.1141 -0.2539
  158POPC   PO4 1703   4.232   8.731   1.754  0.3057  0.1279  0.2185
  158POPC   GL1 1704   4.117   8.888   2.084  0.0229  0.1202  0.0966
  158POPC   GL2 1705   4.231   8.685   2.345  0.0243  0.2688  0.4509
  158POPC   C1A 1706   4.278   9.183   2.407 -0.2444 -0.0050 -0.0615
  158POPC   D2A 1707   4.613   9.309   2.600  0.0745 -0.1217  0.0461
  158POPC   C3A 1708   4.660   9.067   2.967  0.2867  0.1317 -0.2819
  158POPC   C4A 1709   4.973   8.933   3.273 -0.2504  0.2969  0.1791
  158POPC   C1B 1710   4.401   8.702   2.757  0.0419  0.1006  0.0709
  158POPC   C2B 1711   4.245   8.794   3.222 -0.1647 -0.3360  0.1272
  158POPC   C3B 1712   4.027   8.861   3.634 -0.1564 -0.3352  0.0969
  158POPC   C4B 1713   4.273   9.112   3.944  0.0486 -0.0575 -0.0156
  159POPC   NC3 1714   5.029   3.490   1.714  0.1678 -0.2158  0.0886
  159POPC   PO4 1715   4.909   3.880   1.809 -0.1195 -0.1782  0.0644
  159POPC   GL1 1716   4.676   3.858   2.099  0.0318  0.1279  0.2065
  159POPC   GL2 1717   4.814   3.594   2.221  0.2597 -0.1140  0.1523
  159POPC   C1A 1718   4.592   4.046   2.547 -0.0941  0.0138  0.3743
  159POPC   D2A 1719   4.697   4.436   2.697  0.4903  0.0260 -0.3290
  159POPC   C3A 1720   4.450   4.558   3.093  0.3346 -0.0808 -0.2525
  159POPC   C4A 1721   4.557   4.978   3.263 -0.1083  0.1694 -0.0681
  159POPC   C1B 1722   4.788   3.490   2.618 -0.4742  0.0845 -0.0943
  159POPC   C2B 1723   4.894   3.739   2.987 -0.1728  0.1901 -0.3590
  159POPC   C3B 1724   4.774   4.116   3.176 -0.0196 -0.0597  0.0200
  159POPC   C4B 1725   4.481   4.178   3.492  0.1156  0.0218 -0.2562
  160POPC   NC3 1726   1.325   4.428   1.368 -0.0853 -0.2885 -0.2495
  160POPC   PO4 1727   1.627   4.229   1.407  0.4421  0.3869  0.2092
  160POPC   GL1 1728   1.774   4.136   1.794 -0.2080 -0.0614  0.2573
  160POPC   GL2 1729   1.543   4.325   1.902  0.1775  0.0406 -0.1120
  160POPC   C1A 1730   2.116   3.860   1.909 -0.0603  0.0253  0.0642
  160POPC   D2A 1731   2.477   3.588   2.075 -0.2685  0.1132 -0.2884
  160POPC   C3A 1732   2.541   3.987   2.297 -0.0713  0.1013  0.4019
  160POPC   C4A 1733   2.317   4.414   2.256 -0.0196  0.2248 -0.0357
  160POPC   C1B 1734   1.861   4.221   2.294  0.3007  0.3861 -0.1642
  160POPC   C2B 1735   1.992   4.311   2.715  0.1307 -0.1565 -0.0055
  160POPC   C3B 1736   1.900   4.547   3.075 -0.1147  0.1634 -0.1981
  160POPC   C4B 1737   2.019   4.448   3.526 -0.0718 -0.0008  0.0602
  161POPC   NC3 1738   6.471   8.137   1.062 -0.2792 -0.0275  0.1213
  161POPC   PO4 1739   6.156   8.236   1.301  0.2233 -0.2372 -0.2261
  161POPC   GL1 1740   6.298   8.395   1.623  0.0242 -0.1601 -0.0823
  161POPC   GL2 1741   6.602   8.359   1.582  0.1560  0.1457  0.2977
  161POPC   C1A 1742   6.165   8.438   2.064  0.1870  0.4837  0.0354
  161POPC   D2A 1743   6.199   8.483   2.520  0.1301  0.2539 -0.0491
  161POPC   C3A 1744   6.035   8.815   2.791  0.2343 -0.0839  0.2142
  161POPC   C4A 1745   5.837   8.948   3.170 -0.0148 -0.2433  0.0124
  161POPC   C1B 1746   6.700   8.388   2.029 -0.1351  0.2679  0.2224
  161POPC   C2B 1747   6.674   8.433   2.493 -0.0166 -0.0296  0.4576
  161POPC   C3B 1748   6.489   8.413   2.931 -0.0423 -0.3091 -0.0522
  161POPC   C4B 1749   6.378   8.789   3.195  0.3253 -0.1359 -0.0177
  162POPC   NC3 1750   1.320   1.764   1.317  0.3475  0.2279  0.0257
  162POPC   PO4 1751   1.134   1.773   1.674 -0.1699 -0.1923  0.1353
  162POPC   GL1 1752   1.124   2.096   1.977 -0.1977  0.0987  0.1469
  162POPC   GL2 1753   1.414   2.332   1.913  0.1063  0.2840 -0.1879
  162POPC   C1A 1754   1.191   2.413   2.390  0.1915 -0.0487 -0.0285
  162POPC   D2A 1755   1.184   2.480   2.825 -0.0979  0.0486 -0.0198
  162POPC   C3A 1756   1.477   2.242   3.110  0.1199 -0.0994 -0.0827
  162POPC   C4A 1757   1.785   1.859   3.112 -0.2306 -0.0753 -0.1588
  162POPC   C1B 1758   1.660   2.144   2.289 -0.3921 -0.1278 -0.0054
  162POPC   C2B 1759   1.553   1.948   2.665 -0.0766 -0.0563 -0.1604
  162POPC   C3B 1760   1.278   1.735   2.974 -0.2208  0.3558 -0.1481
  162POPC   C4B 1761   1.301   1.795   3.417 -0.0987 -0.1321 -0.0119
  163POPC   NC3 1762   4.206   6.962   1.412  0.1381 -0.1871  0.1382
  163POPC   PO4 1763   4.033   7.278   1.572 -0.0588  0.0355  0.2995
  163POPC   GL1 1764   4.356   7.188   1.860  0.1819 -0.0821  0.1037
  163POPC   GL2 1765   4.668   7.075   1.833  0.3403  0.1550  0.2050
  163POPC   C1A 1766   4.415   7.186   2.307  0.1992 -0.2976 -0.1415
  163POPC   D2A 1767   4.304   6.961   2.650  0.0957  0.0335 -0.0470
  163POPC   C3A 1768   3.914   6.837   2.933  0.0726 -0.0562  0.3798
  163POPC   C4A 1769   3.680   6.842   3.376 -0.0622 -0.1078 -0.1081
  163POPC   C1B 1770   4.964   6.958   2.203  0.1657  0.0170  0.0733
  163POPC   C2B 1771   5.129   6.846   2.713  0.0213 -0.2241 -0.0319
  163POPC   C3B 1772   5.157   6.702   3.176  0.1776  0.0310  0.1147
  163POPC   C4B 1773   5.016   6.546   3.542  0.0722  0.0235 -0.0500
  164POPC   NC3 1774   7.596   7.585   1.629  0.1335 -0.0530  0.1678
  164POPC   PO4 1775   7.449   7.208   1.656  0.5319 -0.0850  0.1935
  164POPC   GL1 1776   7.371   7.090   2.018  0.1254  0.0425  0.5206
  164POPC   GL2 1777   7.430   6.730   2.090 -0.0866 -0.1649 -0.1151
  164POPC   C1A 1778   7.227   7.236   2.413 -0.1172 -0.2418 -0.0007
  164POPC   D2A 1779   6.868   7.410   2.629 -0.0480  0.2776  0.2380
  164POPC   C3A 1780   6.670   7.553   3.023 -0.1903 -0.2659 -0.3499
  164POPC   C4A 1781   6.360   7.786   3.303 -0.0944 -0.0430  0.0413
  164POPC   C1B 1782   7.142   6.501   2.438  0.2947  0.0982  0.0101
  164POPC   C2B 1783   6.885   6.178   2.525  0.3158 -0.2144 -0.1062
  164POPC   C3B 1784   6.611   6.073   2.880 -0.1954 -0.1062  0.0321
  164POPC   C4B 1785   6.221   6.092   3.179 -0.1322  0.0379  0.3292
  165POPC   NC3 1786   2.355   6.358   2.145 -0.0369 -0.0243 -0.1976
  165POPC   PO4 1787   2.060   6.576   2.023  0.3435 -0.1766 -0.1827
  165POPC   GL1 1788   2.070   6.571   2.451 -0.4889  0.1331 -0.2586
  165POPC   GL2 1789   1.964   6.873   2.415  0.0839  0.1132 -0.0603
  165POPC   C1A 1790   2.407   6.683   2.740  0.2731 -0.0581  0.1356
  165POPC   D2A 1791   2.572   6.426   3.081 -0.1792  0.3688  0.0244
  165POPC   C3A 1792   3.042   6.387   3.259 -0.1395  0.1371  0.1899
  165POPC   C4A 1793   3.245   6.479   3.625  0.3402  0.3954 -0.3131
  165POPC   C1B 1794   2.170   7.127   2.734 -0.0690  0.1293  0.2782
  165POPC   C2B 1795   2.467   7.048   3.103  0.1658  0.2228  0.2048
  165POPC   C3B 1796   2.569   7.164   3.536 -0.1835  0.1402  0.0729
  165POPC   C4B 1797   2.895   7.087   3.848 -0.0769 -0.0928  0.0656
  166POPC   NC3 1798   5.713   6.945   1.036 -0.4077 -0.0325 -0.2991
  166POPC   PO4 1799   5.879   7.275   1.188  0.1525  0.1362 -0.1151
  166POPC   GL1 1800   5.877   7.080   1.495 -0.0377 -0.0422  0.3037
  166POPC   GL2 1801   6.202   7.099   1.603  0.1880 -0.1079 -0.1148
  166POPC   C1A 1802   5.732   7.077   1.905  0.1632 -0.1580  0.0940
  166POPC   D2A 1803   5.409   7.313   2.109  0.1137 -0.4537  0.1367
  166POPC   C3A 1804   5.228   7.400   2.510 -0.2561 -0.0242  0.1912
  166POPC   C4A 1805   5.224   7.636   2.895 -0.0737  0.1702  0.0114
  166POPC   C1B 1806   6.582   7.270   1.856 -0.1736  0.3358 -0.0006
  166POPC   C2B 1807   6.659   7.517   2.215  0.0563  0.2067 -0.4305
  166POPC   C3B 1808   6.584   7.853   2.501 -0.4505 -0.0325  0.4714
  166POPC   C4B 1809   6.245   8.019   2.779  0.0845  0.0282  0.0378
  167POPC   NC3 1810   6.718   6.140   1.565  0.1644 -0.0463 -0.0818
  167POPC   PO4 1811   6.310   6.075   1.475  0.1932  0.1608  0.0623
  167POPC   GL1 1812   6.189   6.183   1.785 -0.2901 -0.1968 -0.2166
  167POPC   GL2 1813   6.356   6.239   2.022 -0.2389 -0.2199  0.4858
  167POPC   C1A 1814   5.893   6.451   2.063  0.0429  0.0519 -0.2677
  167POPC   D2A 1815   5.968   6.702   2.458  0.0259  0.2414 -0.2877
  167POPC   C3A 1816   6.056   6.843   2.947 -0.1671  0.0923 -0.0215
  167POPC   C4A 1817   6.049   6.954   3.352  0.1762 -0.1457 -0.1205
  167POPC   C1B 1818   6.288   6.073   2.414  0.0385  0.2802  0.3757
  167POPC   C2B 1819   6.005   5.889   2.718 -0.2878  0.0994  0.2615
  167POPC   C3B 1820   5.816   5.564   3.039 -0.0988 -0.1639  0.2706
  167POPC   C4B 1821   5.419   5.490   3.243  0.0082  0.1937 -0.1668
  168POPC   NC3 1822   4.140   2.663   1.753  0.0429  0.0304 -0.0368
  168POPC   PO4 1823   3.783   2.500   1.737  0.0457 -0.0188  0.0437
  168POPC   GL1 1824   4.010   2.410   2.143 -0.1199 -0.1273 -0.0812
  168POPC   GL2 1825   4.124   2.679   2.278 -0.0414 -0.0711 -0.1660
  168POPC   C1A 1826   3.945   2.358   2.629  0.0382 -0.0807 -0.1281
  168POPC   D2A 1827   3.629   2.268   2.936  0.3956  0.2052  0.4714
  168POPC   C3A 1828   3.238   2.042   2.894  0.0596  0.0067  0.1389
  168POPC   C4A 1829   2.885   1.837   3.029 -0.1415  0.1137 -0.1493
  168POPC   C1B 1830   4.124   2.760   2.773 -0.0697  0.0451 -0.2179
  168POPC   C2B 1831   4.019   2.683   3.196 -0.1816  0.5187 -0.0923
  168POPC   C3B 1832   3.816   2.316   3.446  0.1181 -0.2672  0.0664
  168POPC   C4B 1833   3.880   1.927   3.725 -0.1144  0.4453 -0.0693
  169POPC   NC3 1834   5.867   7.540   1.687  0.1846  0.1054  0.1766
  169POPC   PO4 1835   5.502   7.737   1.786  0.1310  0.1421  0.1630
  169POPC   GL1 1836   5.474   8.092   2.039 -0.2244  0.0587  0.3356
  169POPC   GL2 1837   5.782   8.083   2.128 -0.0194  0.1438  0.1123
  169POPC   C1A 1838   5.200   8.435   2.352 -0.2488  0.0520  0.2212
  169POPC   D2A 1839   5.119   8.636   2.797  0.1288  0.1042 -0.0280
  169POPC   C3A 1840   4.772   8.429   3.086 -0.2396 -0.0232  0.0658
  169POPC   C4A 1841   4.473   8.187   2.919 -0.3674 -0.0210 -0.0643
  169POPC   C1B 1842   5.660   8.141   2.556 -0.2442  0.0770 -0.0492
  169POPC   C2B 1843   5.445   8.172   2.976  0.1555  0.1087 -0.2712
  169POPC   C3B 1844   5.077   8.029   3.240 -0.0566  0.1864  0.1042
  169POPC   C4B 1845   4.901   7.608   3.359 -0.2000 -0.1718 -0.0680
  170POPC   NC3 1846   4.160   1.844   1.145 -0.0543  0.1091  0.0595
  170POPC   PO4 1847   3.743   1.921   1.146 -0.0662  0.1264 -0.0573
  170POPC   GL1 1848   3.914   1.825   1.564  0.3389 -0.3021  0.0989
  170POPC   GL2 1849   3.656   2.024   1.651  0.0472 -0.1188 -0.0736
  170POPC   C1A 1850   3.991   1.843   1.998  0.1425 -0.0451 -0.2585
  170POPC   D2A 1851   3.790   1.615   2.342 -0.0339  0.0475  0.0751
  170POPC   C3A 1852   3.530   1.323   2.645 -0.1791 -0.0524  0.0211
  170POPC   C4A 1853   3.162   1.481   2.880  0.4803 -0.2167  0.0324
  170POPC   C1B 1854   3.483   1.791   2.026  0.2795 -0.0274  0.1783
  170POPC   C2B 1855   3.251   1.731   2.437  0.1118 -0.0914 -0.0449
  170POPC   C3B 1856   2.792   1.651   2.548 -0.2634 -0.4958  0.1474
  170POPC   C4B 1857   2.386   1.647   2.765 -0.0387  0.0069  0.0554
  171POPC   NC3 1858   0.894   1.385   1.936 -0.2908 -0.1770  0.1888
  171POPC   PO4 1859   1.172   1.256   1.722 -0.1214 -0.3149 -0.2366
  171POPC   GL1 1860   1.386   1.364   2.114  0.2080 -0.0749  0.0001
  171POPC   GL2 1861   1.465   1.640   2.082  0.0336 -0.1970  0.0967
  171POPC   C1A 1862   1.322   1.327   2.615  0.2819 -0.0456 -0.0189
  171POPC   D2A 1863   1.297   1.082   2.944  0.2745 -0.1227  0.0129
  171POPC   C3A 1864   1.246   1.288   3.357 -0.0669  0.2162 -0.1269
  171POPC   C4A 1865   1.187   1.379   3.801 -0.0553  0.2277  0.0061
  171POPC   C1B 1866   1.195   1.791   2.361 -0.1841 -0.1459 -0.1382
  171POPC   C2B 1867   0.915   1.934   2.602 -0.2928 -0.1979  0.0091
  171POPC   C3B 1868   0.878   2.119   3.057 -0.0286  0.0914  0.0273
  171POPC   C4B 1869   0.678   2.108   3.463  0.1444 -0.2100  0.0368
  172POPC   NC3 1870   1.781   5.517   1.866  0.1778  0.0261 -0.3459
  172POPC   PO4 1871   1.538   5.190   1.810 -0.1304  0.0610  0.0162
  172POPC   GL1 1872   1.493   5.209   2.231  0.1879  0.1659 -0.0460
  172POPC   GL2 1873   1.311   5.076   2.283  0.1655  0.3743 -0.0813
  172POPC   C1A 1874   1.649   5.226   2.651 -0.1568  0.0303 -0.0557
  172POPC   D2A 1875   1.527   5.382   3.074 -0.0175  0.0205 -0.1598
  172POPC   C3A 1876   1.761   5.151   3.420 -0.2652  0.0558 -0.2092
  172POPC   C4A 1877   2.197   4.923   3.425 -0.0198 -0.1415  0.0772
  172POPC   C1B 1878   1.078   5.073   2.688 -0.2345 -0.3121 -0.0198
  172POPC   C2B 1879   0.951   4.944   3.120  0.2711 -0.2637  0.0532
  172POPC   C3B 1880   0.921   5.131   3.514  0.0873  0.0138 -0.0357
  172POPC   C4B 1881   1.070   5.175   3.969  0.0008  0.1286  0.0364
  173POPC   NC3 1882   5.395   1.223   1.537  0.2425 -0.1741 -0.0145
  173POPC   PO4 1883   5.508   0.935   1.244 -0.0826 -0.0960 -0.0555
  173POPC   GL1 1884   5.340   0.691   1.511 -0.0218  0.1793 -0.1460
  173POPC   GL2 1885   5.535   0.587   1.700  0.1622  0.3161  0.0445
  173POPC   C1A 1886   5.056   0.810   1.882  0.0494  0.1435  0.2173
  173POPC   D2A 1887   5.221   1.154   2.139 -0.0277 -0.2056  0.0851
  173POPC   C3A 1888   5.342   1.195   2.545  0.2034 -0.0406 -0.0822
  173POPC   C4A 1889   5.492   1.383   2.966  0.1033 -0.3082 -0.1913
  173POPC   C1B 1890   5.631   0.997   1.859 -0.0681 -0.2182  0.1674
  173POPC   C2B 1891   5.667   1.395   2.060 -0.0052  0.0791  0.0107
  173POPC   C3B 1892   5.819   1.780   2.315  0.1408 -0.1452 -0.0834
  173POPC   C4B 1893   5.788   2.213   2.335  0.2214 -0.2158 -0.2234
  174POPC   NC3 1894   8.224   1.082   1.914 -0.0858 -0.3431 -0.1349
  174POPC   PO4 1895   8.143   1.447   2.043 -0.1009  0.1021 -0.1717
  174POPC   GL1 1896   8.339   1.413   2.379 -0.4110  0.0021  0.1250
  174POPC   GL2 1897   8.152   1.333   2.515  0.2736 -0.2010  0.3554
  174POPC   C1A 1898   8.601   1.679   2.613 -0.2462 -0.1183  0.0732
  174POPC   D2A 1899   8.601   1.859   3.068 -0.0731  0.0621 -0.3123
  174POPC   C3A 1900   9.032   1.693   3.289  0.0359 -0.2198  0.2174
  174POPC   C4A 1901   9.429   1.547   3.465 -0.0951  0.0686  0.1154
  174POPC   C1B 1902   8.229   1.465   2.966  0.1717 -0.1076 -0.0279
  174POPC   C2B 1903   7.953   1.294   3.235 -0.2741  0.2579  0.1872
  174POPC   C3B 1904   7.651   1.236   3.590  0.0043  0.1746 -0.1049
  174POPC   C4B 1905   7.470   1.293   4.017  0.0270  0.0013  0.1616
  175POPC   NC3 1906   8.926   4.279   1.669 -0.2781 -0.0149 -0.1685
  175POPC   PO4 1907   8.593   4.176   1.846  0.0603 -0.1348  0.2228
  175POPC   GL1 1908   8.457   4.386   2.097  0.0794  0.3037 -0.1235
  175POPC   GL2 1909   8.264   4.315   2.222  0.1464  0.2510  0.0231
  175POPC   C1A 1910   8.595   4.607   2.521 -0.1695 -0.0238 -0.1395
  175POPC   D2A 1911   8.527   4.607   2.961 -0.2442  0.1674 -0.3041
  175POPC   C3A 1912   8.228   4.785   3.209 -0.0453 -0.0013 -0.1720
  175POPC   C4A 1913   8.004   4.919   3.620  0.0835 -0.0801 -0.4660
  175POPC   C1B 1914   8.149   4.421   2.743  0.1254  0.2337  0.2278
  175POPC   C2B 1915   7.759   4.585   3.028 -0.0847 -0.1230  0.2122
  175POPC   C3B 1916   7.396   4.645   3.171 -0.0305  0.1613 -0.1010
  175POPC   C4B 1917   7.226   4.655   3.628 -0.2929 -0.1802  0.3604
  176POPC   NC3 1918   2.124   4.134   1.507  0.1592 -0.1996 -0.0031
  176POPC   PO4 1919   2.361   3.896   1.348  0.1610  0.1101 -0.0172
  176POPC   GL1 1920   2.655   4.039   1.650 -0.1110  0.1883  0.1448
  176POPC   GL2 1921   2.874   3.852   1.615  0.1271 -0.0189 -0.1229
  176POPC   C1A 1922   2.925   4.287   1.960  0.2573  0.1909 -0.0194
  176POPC   D2A 1923   3.392   4.391   2.012  0.3689 -0.1811  0.1694
  176POPC   C3A 1924   3.445   4.781   2.203 -0.1756  0.0812 -0.0719
  176POPC   C4A 1925   3.063   5.056   2.414 -0.2201  0.1644  0.0598
  176POPC   C1B 1926   2.979   3.742   2.083 -0.1310  0.1036  0.2708
  176POPC   C2B 1927   2.875   3.625   2.532  0.0229  0.0804 -0.0360
  176POPC   C3B 1928   2.813   3.514   3.035  0.1916 -0.1157 -0.2209
  176POPC   C4B 1929   2.872   3.563   3.498 -0.0299  0.0482  0.0841
  177POPC   NC3 1930   8.247   4.797   2.168 -0.1996  0.3227 -0.1264
  177POPC   PO4 1931   7.846   4.658   2.095 -0.3215  0.1465  0.0705
  177POPC   GL1 1932   7.777   4.479   2.388 -0.1851  0.1879 -0.2102
  177POPC   GL2 1933   7.859   4.764   2.586 -0.1179  0.0459  0.2375
  177POPC   C1A 1934   7.572   4.286   2.724  0.0359 -0.0617 -0.1856
  177POPC   D2A 1935   7.301   3.963   2.916 -0.1390 -0.1854  0.0122
  177POPC   C3A 1936   6.934   4.126   3.147 -0.2563 -0.1919 -0.1239
  177POPC   C4A 1937   6.532   4.340   3.248  0.1199 -0.1451 -0.1298
  177POPC   C1B 1938   8.274   4.970   2.685  0.1320  0.1650 -0.1551
  177POPC   C2B 1939   8.425   5.428   2.747 -0.2564 -0.1245 -0.1761
  177POPC   C3B 1940   8.711   5.677   3.093  0.0927  0.3280  0.0122
  177POPC   C4B 1941   8.719   5.692   3.570  0.0305 -0.2127 -0.1247
  178POPC   NC3 1942   8.343   8.242   1.464  0.3242 -0.0321  0.1392
  178POPC   PO4 1943   8.018   8.020   1.501  0.1727 -0.1307 -0.1860
  178POPC   GL1 1944   7.831   7.923   1.877  0.2153  0.1518 -0.1905
  178POPC   GL2 1945   7.669   8.147   1.949 -0.1441 -0.0554  0.4112
  178POPC   C1A 1946   7.932   7.893   2.338 -0.0389 -0.2400 -0.2272
  178POPC   D2A 1947   8.181   7.797   2.730 -0.1013  0.2895  0.1440
  178POPC   C3A 1948   8.012   7.795   3.135 -0.0936  0.3043  0.1015
  178POPC   C4A 1949   7.957   7.709   3.555  0.4007  0.2183 -0.1596
  178POPC   C1B 1950   7.756   8.496   2.205 -0.0013  0.1511 -0.1928
  178POPC   C2B 1951   7.674   8.513   2.651  0.0600 -0.0328  0.2362
  178POPC   C3B 1952   7.756   8.463   3.112  0.2261 -0.3152  0.0719
  178POPC   C4B 1953   8.080   8.261   3.363 -0.1798 -0.0758 -0.0661
  179POPC   NC3 1954   6.821   7.850   1.830 -0.1052 -0.1021 -0.3602
  179POPC   PO4 1955   7.183   7.987   1.800 -0.2474  0.1860 -0.2187
  179POPC   GL1 1956   7.371   7.781   2.096  0.2998  0.0841 -0.1811
  179POPC   GL2 1957   7.130   7.685   2.281  0.0593  0.2410 -0.2453
  179POPC   C1A 1958   7.450   8.053   2.465  0.1159  0.1294 -0.0801
  179POPC   D2A 1959   7.643   7.945   2.817  0.0879  0.1314  0.0372
  179POPC   C3A 1960   7.529   8.002   3.272  0.0207 -0.0933  0.1581
  179POPC   C4A 1961   7.136   8.136   3.470  0.3132  0.0522 -0.0907
  179POPC   C1B 1962   7.024   7.949   2.706 -0.0747  0.3358 -0.1662
  179POPC   C2B 1963   6.847   8.094   3.034 -0.3949 -0.0172  0.2360
  179POPC   C3B 1964   6.576   8.182   3.384  0.0393  0.0894 -0.1394
  179POPC   C4B 1965   6.655   8.087   3.826 -0.2503 -0.2560 -0.2653
  180POPC   NC3 1966   3.285   1.783   1.165  0.1081  0.2788  0.1105
  180POPC   PO4 1967   2.939   1.775   1.257  0.2681 -0.2412  0.2098
  180POPC   GL1 1968   2.924   1.863   1.552  0.0632  0.1118  0.1535
  180POPC   GL2 1969   2.678   1.858   1.727  0.1023 -0.2796  0.2182
  180POPC   C1A 1970   3.073   2.175   1.865  0.0033  0.0143 -0.1414
  180POPC   D2A 1971   3.447   2.363   2.078 -0.0229  0.0678 -0.1545
  180POPC   C3A 1972   3.567   2.073   2.424 -0.1379 -0.0280 -0.0932
  180POPC   C4A 1973   3.673   1.757   2.797  0.3030 -0.0596  0.1143
  180POPC   C1B 1974   2.872   1.846   2.115  0.0576 -0.1556 -0.1265
  180POPC   C2B 1975   3.055   2.172   2.378 -0.0190 -0.2549 -0.3283
  180POPC   C3B 1976   3.318   2.479   2.544  0.1699 -0.1103 -0.3183
  180POPC   C4B 1977   3.680   2.728   2.518  0.1012  0.3129  0.0658
  181POPC   NC3 1978   5.145   6.128   1.177  0.2842 -0.3149  0.0498
  181POPC   PO4 1979   5.463   6.354   1.223 -0.2510 -0.2341 -0.1706
  181POPC   GL1 1980   5.334   6.314   1.589  0.0866  0.1263  0.2277
  181POPC   GL2 1981   5.327   6.110   1.746  0.1795  0.1127 -0.2153
  181POPC   C1A 1982   5.405   6.511   1.987 -0.1279 -0.0473 -0.0321
  181POPC   D2A 1983   5.541   6.803   2.296  0.0922 -0.0153  0.1097
  181POPC   C3A 1984   5.657   7.038   2.694  0.1621  0.0590 -0.1399
  181POPC   C4A 1985   5.602   7.224   3.068 -0.0906  0.0568 -0.3223
  181POPC   C1B 1986   5.290   5.870   2.117  0.1666  0.2687 -0.1073
  181POPC   C2B 1987   5.064   5.868   2.524  0.1382  0.0205  0.1948
  181POPC   C3B 1988   5.053   5.764   2.969  0.0005  0.0413  0.2000
  181POPC   C4B 1989   4.789   5.826   3.349  0.2387 -0.1889  0.0986
  182POPC   NC3 1990   6.631   4.934   1.657 -0.0512  0.1978  0.1549
  182POPC   PO4 1991   6.703   5.281   1.558 -0.1089  0.0060 -0.1329
  182POPC   GL1 1992   6.791   5.559   1.881  0.0868  0.0196 -0.0063
  182POPC   GL2 1993   6.574   5.709   1.808 -0.1832 -0.0202  0.0403
  182POPC   C1A 1994   6.860   6.000   2.069 -0.0915  0.0457  0.2256
  182POPC   D2A 1995   6.806   6.440   2.054 -0.0491  0.1478  0.1026
  182POPC   C3A 1996   6.513   6.567   2.356  0.2803 -0.1762 -0.1193
  182POPC   C4A 1997   6.373   6.524   2.767 -0.1076 -0.2894  0.2147
  182POPC   C1B 1998   6.108   5.607   2.041 -0.3669 -0.0588  0.0615
  182POPC   C2B 1999   5.940   5.492   2.457  0.0426  0.2444  0.1004
  182POPC   C3B 2000   6.035   5.176   2.787 -0.0166  0.1031  0.0300
  182POPC   C4B 2001   5.843   4.759   2.689  0.0308  0.1678 -0.2850
  183POPC   NC3 2002   3.007   5.468   1.460  0.0383 -0.1340 -0.0759
  183POPC   PO4 2003   2.715   5.273   1.640  0.4868 -0.0048 -0.0663
  183POPC   GL1 2004   2.753   5.379   2.022 -0.4053  0.2352 -0.3577
  183POPC   GL2 2005   2.513   5.215   2.098 -0.0770  0.1605  0.0944
  183POPC   C1A 2006   2.878   5.629   2.417  0.3944 -0.2766 -0.3748
  183POPC   D2A 2007   3.154   5.532   2.707  0.3127  0.1221  0.1139
  183POPC   C3A 2008   3.307   5.412   3.174  0.2611  0.1214  0.2055
  183POPC   C4A 2009   3.059   5.344   3.507 -0.1188  0.3198  0.0579
  183POPC   C1B 2010   2.593   5.263   2.547 -0.0171  0.1052 -0.1660
  183POPC   C2B 2011   2.646   5.226   3.014  0.4030  0.1657 -0.0323
  183POPC   C3B 2012   2.671   4.973   3.399 -0.0782 -0.3200  0.3524
  183POPC   C4B 2013   2.854   4.909   3.751 -0.4106 -0.1059 -0.0500
  184POPC   NC3 2014   6.008   2.658   1.474  0.1866  0.2579  0.2359
  184POPC   PO4 2015   5.646   2.789   1.477  0.0388  0.2024  0.1344
  184POPC   GL1 2016   5.689   3.057   1.641  0.0040 -0.0478  0.0799
  184POPC   GL2 2017   5.429   3.124   1.696 -0.1222  0.2589  0.0982
  184POPC   C1A 2018   5.620   3.146   2.148  0.4607 -0.0229 -0.1011
  184POPC   D2A 2019   5.290   3.103   2.461 -0.0178 -0.0277  0.1920
  184POPC   C3A 2020   5.189   3.252   2.920  0.2417  0.5030 -0.3218
  184POPC   C4A 2021   5.241   3.470   3.309 -0.1674  0.0497 -0.0835
  184POPC   C1B 2022   5.092   3.148   2.006 -0.2106  0.0725  0.3156
  184POPC   C2B 2023   4.823   3.021   2.347 -0.1913  0.0125 -0.1443
  184POPC   C3B 2024   4.679   2.934   2.801  0.1796  0.1847  0.0315
  184POPC   C4B 2025   4.687   3.103   3.218  0.1677  0.2895 -0.2968
  185POPC   NC3 2026   5.524   3.191   1.208  0.3275 -0.1582 -0.2281
  185POPC   PO4 2027   5.460   3.519   1.393  0.2462  0.0730 -0.1017
  185POPC   GL1 2028   5.675   3.609   1.623  0.0940  0.3101 -0.0881
  185POPC   GL2 2029   5.504   3.775   1.859  0.1290  0.0241 -0.1479
  185POPC   C1A 2030   5.977   3.524   1.987  0.0816  0.0225 -0.2874
  185POPC   D2A 2031   5.886   3.432   2.460  0.1196  0.1252  0.1663
  185POPC   C3A 2032   6.301   3.444   2.594  0.2662 -0.0308 -0.0118
  185POPC   C4A 2033   6.439   3.764   2.856  0.0997 -0.0620 -0.0897
  185POPC   C1B 2034   5.365   3.614   2.276 -0.1866 -0.0340  0.0841
  185POPC   C2B 2035   5.408   3.735   2.684  0.0545 -0.0885 -0.0393
  185POPC   C3B 2036   5.537   4.056   2.991  0.1819  0.1315  0.1834
  185POPC   C4B 2037   5.570   4.555   2.986 -0.2385  0.1249  0.1878
  186POPC   NC3 2038   3.583   4.130   1.234 -0.0287  0.0152  0.0430
  186POPC   PO4 2039   3.421   3.988   1.554 -0.0024  0.0976 -0.4384
  186POPC   GL1 2040   3.597   3.789   1.825 -0.1701  0.3318 -0.2058
  186POPC   GL2 2041   3.467   3.864   2.064 -0.2919 -0.2504 -0.0904
  186POPC   C1A 2042   3.899   3.472   2.069 -0.0852  0.1132  0.1810
  186POPC   D2A 2043   3.827   3.218   2.408  0.1396 -0.3588 -0.1376
  186POPC   C3A 2044   3.685   3.070   2.838  0.1532 -0.0439 -0.0367
  186POPC   C4A 2045   3.623   3.205   3.252  0.1178  0.2167 -0.1591
  186POPC   C1B 2046   3.259   3.977   2.464 -0.0873  0.0539 -0.1956
  186POPC   C2B 2047   3.112   3.857   2.865 -0.0404 -0.1099 -0.2949
  186POPC   C3B 2048   3.281   3.731   3.238  0.0081 -0.2464 -0.3025
  186POPC   C4B 2049   3.693   3.652   3.471  0.2732 -0.1120  0.4134
  187POPC   NC3 2050   0.187   0.245   2.086  0.2007  0.0486  0.0921
  187POPC   PO4 2051   0.332   0.027   1.764 -0.0336 -0.0388  0.5138
  187POPC   GL1 2052   0.486  -0.176   2.051  0.1621 -0.0505  0.5638
  187POPC   GL2 2053   0.223  -0.270   2.150 -0.0232 -0.0077  0.2712
  187POPC   C1A 2054   0.555  -0.595   2.195 -0.1363 -0.1374  0.4971
  187POPC   D2A 2055   0.661  -0.743   2.593 -0.1940 -0.0256 -0.1320
  187POPC   C3A 2056   0.503  -0.475   2.949  0.3265  0.2250  0.0248
  187POPC   C4A 2057   0.299  -0.468   3.330 -0.2314 -0.3079 -0.0884
  187POPC   C1B 2058   0.322  -0.244   2.555 -0.2462 -0.1014  0.6069
  187POPC   C2B 2059   0.195  -0.120   2.990 -0.0203  0.0983 -0.2608
  187POPC   C3B 2060   0.580   0.026   3.259 -0.0942 -0.1798  0.1331
  187POPC   C4B 2061   1.046   0.123   3.249 -0.0640  0.0856  0.1954
  188POPC   NC3 2062   2.858   4.919   1.249 -0.0263  0.0469 -0.1030
  188POPC   PO4 2063   3.223   5.114   1.204  0.2756 -0.4053  0.0771
  188POPC   GL1 2064   3.196   4.999   1.598  0.1118 -0.0427 -0.0069
  188POPC   GL2 2065   3.439   4.913   1.638 -0.4119 -0.1432 -0.0201
  188POPC   C1A 2066   3.002   4.760   1.970  0.2187 -0.0553 -0.2104
  188POPC   D2A 2067   3.032   4.473   2.395 -0.2074  0.0282  0.0642
  188POPC   C3A 2068   2.809   4.208   2.638 -0.0928 -0.2025 -0.1702
  188POPC   C4A 2069   2.416   4.057   2.820 -0.3720  0.0665  0.2704
  188POPC   C1B 2070   3.421   5.278   1.975  0.0495 -0.1704  0.0232
  188POPC   C2B 2071   3.364   5.618   2.286  0.0333  0.0864 -0.1950
  188POPC   C3B 2072   3.233   5.996   2.458 -0.1514  0.2226 -0.0180
  188POPC   C4B 2073   3.493   6.382   2.519  0.2761  0.0930 -0.0025
  189POPC   NC3 2074   4.272   6.160   1.543  0.1353 -0.2253  0.0420
  189POPC   PO4 2075   4.015   6.470   1.586 -0.0048  0.0033  0.1109
  189POPC   GL1 2076   3.902   6.538   2.013 -0.0595  0.0222 -0.3479
  189POPC   GL2 2077   3.700   6.519   2.077  0.1398  0.1398  0.3921
  189POPC   C1A 2078   4.203   6.258   2.254  0.0272 -0.2832  0.0117
  189POPC   D2A 2079   4.614   6.157   2.460 -0.4398 -0.1435  0.0733
  189POPC   C3A 2080   4.626   5.767   2.702  0.2177 -0.2989  0.0999
  189POPC   C4A 2081   4.616   5.500   3.101 -0.1027  0.3895  0.2848
  189POPC   C1B 2082   3.954   6.633   2.450  0.0253  0.2467  0.0747
  189POPC   C2B 2083   4.202   6.421   2.826 -0.1726 -0.1113  0.5625
  189POPC   C3B 2084   4.119   6.430   3.276  0.1330 -0.1506 -0.0307
  189POPC   C4B 2085   4.168   6.783   3.568 -0.1524  0.1153  0.0010
  190POPC   NC3 2086   4.810   4.645   1.601  0.1099  0.1032  0.1095
  190POPC   PO4 2087   5.205   4.535   1.664  0.4396 -0.0886  0.1617
  190POPC   GL1 2088   5.154   4.689   1.942  0.1728 -0.4109  0.0867
  190POPC   GL2 2089   5.274   4.906   2.009  0.2322  0.0214 -0.2310
  190POPC   C1A 2090   4.853   4.707   2.324  0.0634 -0.2098  0.0906
  190POPC   D2A 2091   4.615   4.913   2.613  0.4261 -0.1159 -0.2036
  190POPC   C3A 2092   4.143   4.826   2.680  0.0138 -0.1534  0.0501
  190POPC   C4A 2093   3.686   4.608   2.815  0.1858 -0.0589 -0.0351
  190POPC   C1B 2094   5.412   4.949   2.482  0.0312 -0.2756 -0.0361
  190POPC   C2B 2095   5.457   5.074   2.929  0.1747 -0.0125  0.0457
  190POPC   C3B 2096   5.377   4.854   3.356  0.0222  0.1206 -0.1438
  190POPC   C4B 2097   5.016   4.643   3.541 -0.1281  0.1106  0.1372
  191POPC   NC3 2098   2.413   0.137   1.664 -0.2737 -0.3350 -0.1451
  191POPC   PO4 2099   2.041   0.280   1.671  0.0245 -0.1173 -0.1076
  191POPC   GL1 2100   2.117   0.557   1.978 -0.0874  0.0049 -0.0555
  191POPC   GL2 2101   2.354   0.574   2.038 -0.0810  0.1825  0.1732
  191POPC   C1A 2102   1.967   0.768   2.357 -0.0899  0.0491 -0.0638
  191POPC   D2A 2103   1.768   0.806   2.802 -0.1800  0.1954  0.0960
  191POPC   C3A 2104   1.677   0.434   3.031 -0.1494 -0.1102  0.0354
  191POPC   C4A 2105   1.431   0.078   3.010  0.0722  0.1091 -0.1522
  191POPC   C1B 2106   2.444   0.259   2.315 -0.3817  0.0023  0.0076
  191POPC   C2B 2107   2.359  -0.115   2.607  0.1197  0.1072  0.1206
  191POPC   C3B 2108   2.249  -0.499   2.911  0.0408 -0.0221  0.1821
  191POPC   C4B 2109   2.434  -0.646   3.338  0.0644 -0.1238 -0.1524
  192POPC   NC3 2110   8.005   1.910   1.933  0.0980  0.1114 -0.0802
  192POPC   PO4 2111   7.661   1.844   1.773 -0.1815  0.0938 -0.0264
  192POPC   GL1 2112   7.594   1.675   2.052 -0.0407 -0.0902  0.2539
  192POPC   GL2 2113   7.728   1.637   2.284 -0.4196  0.2299 -0.0176
  192POPC   C1A 2114   7.243   1.625   2.395 -0.0912  0.3537 -0.1629
  192POPC   D2A 2115   7.119   1.313   2.774 -0.1736 -0.3294  0.2127
  192POPC   C3A 2116   6.734   1.328   3.018  0.0805 -0.2809 -0.1442
  192POPC   C4A 2117   6.307   1.336   3.229 -0.0123 -0.2626  0.0063
  192POPC   C1B 2118   7.722   1.617   2.748  0.0658 -0.0761  0.0496
  192POPC   C2B 2119   7.590   1.675   3.210 -0.2058 -0.0129  0.0309
  192POPC   C3B 2120   7.545   2.012   3.460 -0.1905 -0.1193  0.0517
  192POPC   C4B 2121   7.398   2.376   3.606  0.0455  0.1925 -0.2825
  193POPC   NC3 2122   0.932   6.368   2.510  0.0627 -0.1173  0.1809
  193POPC   PO4 2123   0.863   6.600   2.188  0.1406 -0.2442 -0.1402
  193POPC   GL1 2124   0.544   6.646   2.384  0.3286  0.2532 -0.1652
  193POPC   GL2 2125   0.376   6.844   2.378  0.5243 -0.3523 -0.0188
  193POPC   C1A 2126   0.558   6.554   2.830  0.0040  0.1182 -0.0305
  193POPC   D2A 2127   0.323   6.716   3.254  0.0366  0.3266  0.1855
  193POPC   C3A 2128   0.109   7.082   3.253 -0.0125  0.3218  0.1883
  193POPC   C4A 2129   0.027   7.468   3.453 -0.1147 -0.1338  0.0565
  193POPC   C1B 2130   0.107   6.909   2.775 -0.0480  0.0375 -0.2839
  193POPC   C2B 2131  -0.285   7.105   2.842  0.0193  0.1350 -0.2844
  193POPC   C3B 2132  -0.725   7.163   2.947 -0.1253  0.1777 -0.0055
  193POPC   C4B 2133  -1.019   7.304   3.298 -0.1009 -0.2902 -0.0655
  194POPC   NC3 2134   5.164   1.929   1.013  0.0662  0.1283  0.0338
  194POPC   PO4 2135   5.166   1.869   1.413 -0.0584  0.0500 -0.0794
  194POPC   GL1 2136   5.280   1.728   1.806 -0.0670 -0.3060  0.0520
  194POPC   GL2 2137   5.043   1.516   1.816  0.0489 -0.2906 -0.1840
  194POPC   C1A 2138   5.354   1.730   2.265 -0.1261 -0.1201 -0.1633
  194POPC   D2A 2139   5.410   1.960   2.614  0.1041  0.0700 -0.1974
  194POPC   C3A 2140   5.623   2.202   2.946  0.0363 -0.2238 -0.0756
  194POPC   C4A 2141   5.492   2.353   3.378  0.0647 -0.1191  0.0390
  194POPC   C1B 2142   4.807   1.496   2.239  0.0550  0.2029  0.0356
  194POPC   C2B 2143   4.975   1.545   2.654  0.1348 -0.1390 -0.0903
  194POPC   C3B 2144   5.105   1.834   2.986  0.1259  0.0771 -0.0613
  194POPC   C4B 2145   4.940   2.187   3.236  0.1460  0.4052 -0.2064
  195POPC   NC3 2146   0.420   8.658   1.679  0.1762  0.1245 -0.3733
  195POPC   PO4 2147   0.157   8.408   1.526 -0.0249 -0.2269  0.1456
  195POPC   GL1 2148   0.012   8.499   1.852  0.1689 -0.4239  0.0665
  195POPC   GL2 2149  -0.068   8.427   2.168  0.0629  0.1769  0.0749
  195POPC   C1A 2150  -0.244   8.878   1.954  0.0488 -0.0012  0.0146
  195POPC   D2A 2151  -0.712   8.881   1.851  0.0634  0.1795  0.0518
  195POPC   C3A 2152  -0.952   8.814   2.259 -0.2775  0.0945  0.4877
  195POPC   C4A 2153  -1.308   8.986   2.542 -0.0860  0.4937 -0.0031
  195POPC   C1B 2154  -0.371   8.601   2.435 -0.0850  0.2366 -0.0159
  195POPC   C2B 2155  -0.461   8.597   2.884 -0.1698  0.0303  0.1517
  195POPC   C3B 2156  -0.212   8.691   3.254 -0.1337  0.0704 -0.0336
  195POPC   C4B 2157  -0.045   8.746   3.707  0.2164  0.0011  0.3346
  196POPC   NC3 2158   0.011   5.492   1.635  0.0661  0.2034 -0.0276
  196POPC   PO4 2159  -0.044   5.164   1.756  0.0370 -0.0302  0.1056
  196POPC   GL1 2160  -0.073   5.401   2.079 -0.3491  0.3186  0.2287
  196POPC   GL2 2161  -0.261   5.238   2.215  0.0179  0.2116 -0.4007
  196POPC   C1A 2162   0.196   5.316   2.393 -0.2352  0.1891  0.1442
  196POPC   D2A 2163   0.559   5.229   2.690 -0.1963  0.2114 -0.1619
  196POPC   C3A 2164   0.470   5.237   3.130  0.0100 -0.0966  0.0283
  196POPC   C4A 2165   0.381   5.205   3.599  0.0765  0.0417  0.0297
  196POPC   C1B 2166  -0.393   5.098   2.597  0.2011  0.2365  0.0713
  196POPC   C2B 2167  -0.413   5.075   2.963 -0.1058  0.1419 -0.0119
  196POPC   C3B 2168  -0.682   5.306   3.247  0.0658 -0.2754 -0.1488
  196POPC   C4B 2169  -1.128   5.380   3.444 -0.1731 -0.3065 -0.0731
  197POPC   NC3 2170   6.596   6.847   1.431 -0.3029 -0.2369 -0.1092
  197POPC   PO4 2171   6.426   6.558   1.627  0.2749  0.0646 -0.0792
  197POPC   GL1 2172   6.569   6.850   1.928 -0.3373  0.4685  0.2816
  197POPC   GL2 2173   6.314   6.929   2.066  0.0541  0.0376 -0.0845
  197POPC   C1A 2174   6.787   7.006   2.290  0.4570 -0.1740 -0.1203
  197POPC   D2A 2175   6.999   6.900   2.656  0.1693 -0.1130  0.1396
  197POPC   C3A 2176   6.895   6.521   2.879  0.0307 -0.0300 -0.1397
  197POPC   C4A 2177   6.911   6.237   3.286 -0.1792 -0.0641  0.0068
  197POPC   C1B 2178   6.355   7.041   2.534  0.0269 -0.0487 -0.3102
  197POPC   C2B 2179   6.555   7.048   3.010  0.0774  0.1234 -0.0555
  197POPC   C3B 2180   6.392   7.318   3.387 -0.0933 -0.0912 -0.2194
  197POPC   C4B 2181   5.972   7.449   3.477 -0.0803  0.0980 -0.3070
  198POPC   NC3 2182   2.858   7.727   1.611 -0.0417  0.2653 -0.0029
  198POPC   PO4 2183   2.456   7.818   1.576 -0.1096  0.1297  0.1724
  198POPC   GL1 2184   2.537   7.922   2.004 -0.1744 -0.2726 -0.1788
  198POPC   GL2 2185   2.750   8.130   2.041 -0.2631  0.0423  0.2248
  198POPC   C1A 2186   2.306   7.865   2.419  0.0028 -0.2841 -0.1361
  198POPC   D2A 2187   1.950   7.791   2.728  0.0607  0.3153  0.1183
  198POPC   C3A 2188   1.721   7.818   3.131 -0.0824  0.2147 -0.2510
  198POPC   C4A 2189   1.297   7.859   3.348  0.0283 -0.0789 -0.1050
  198POPC   C1B 2190   2.650   8.235   2.498 -0.1676 -0.1661 -0.0936
  198POPC   C2B 2191   2.497   8.042   2.888  0.1986  0.2249 -0.1819
  198POPC   C3B 2192   2.364   7.974   3.362 -0.1101 -0.0770 -0.0914
  198POPC   C4B 2193   2.125   7.665   3.521 -0.0269 -0.1840 -0.1440
  199POPC   NC3 2194   3.139   0.298   1.588 -0.0808  0.0547  0.1451
  199POPC   PO4 2195   3.111   0.577   1.305 -0.0494 -0.0658  0.0010
  199POPC   GL1 2196   3.291   0.719   1.641  0.0107  0.5279  0.2150
  199POPC   GL2 2197   3.347   1.024   1.734 -0.3442  0.0504  0.0932
  199POPC   C1A 2198   3.354   0.457   2.076 -0.1234  0.1202 -0.0669
  199POPC   D2A 2199   3.337   0.314   2.499  0.1368 -0.0107 -0.1182
  199POPC   C3A 2200   3.358   0.537   2.899  0.0438 -0.1713 -0.0944
  199POPC   C4A 2201   3.313   0.993   2.996  0.0400  0.0103  0.2202
  199POPC   C1B 2202   3.141   1.318   1.988 -0.2190  0.0193 -0.0283
  199POPC   C2B 2203   2.699   1.373   1.983  0.2832  0.1087 -0.1017
  199POPC   C3B 2204   2.407   1.582   2.275 -0.0581  0.1760  0.0790
  199POPC   C4B 2205   2.082   1.849   2.359  0.0358 -0.0096 -0.0192
  200POPC   NC3 2206   0.932   3.502   1.691 -0.4054  0.1262 -0.1787
  200POPC   PO4 2207   0.770   3.587   2.066 -0.1045 -0.2097 -0.2251
  200POPC   GL1 2208   0.935   3.947   2.047  0.1846 -0.0962 -0.2131
  200POPC   GL2 2209   0.808   4.147   2.253 -0.1934  0.1465 -0.4286
  200POPC   C1A 2210   1.324   4.115   2.322 -0.1673 -0.0274 -0.1022
  200POPC   D2A 2211   1.519   4.102   2.718  0.2480  0.2236 -0.0187
  200POPC   C3A 2212   1.282   3.929   3.040 -0.3272 -0.0721  0.0202
  200POPC   C4A 2213   1.071   3.761   3.327 -0.0977  0.2220  0.0598
  200POPC   C1B 2214   0.993   4.147   2.696  0.2287  0.1816 -0.0329
  200POPC   C2B 2215   0.908   4.248   3.164  0.4452  0.2064 -0.0333
  200POPC   C3B 2216   0.878   4.553   3.503  0.0538  0.1068 -0.2592
  200POPC   C4B 2217   0.692   4.834   3.830 -0.0502  0.1450 -0.0726
  201POPC   NC3 2218   5.239   5.522   0.899 -0.1175  0.1122 -0.0717
  201POPC   PO4 2219   5.000   5.634   1.214 -0.0108  0.0605  0.4568
  201POPC   GL1 2220   4.992   5.848   1.545  0.1059 -0.0792 -0.4351
  201POPC   GL2 2221   5.058   5.632   1.742 -0.1246  0.0537 -0.4102
  201POPC   C1A 2222   4.734   5.874   1.976  0.0687 -0.0331  0.1378
  201POPC   D2A 2223   4.291   5.777   2.135  0.2426 -0.0598 -0.0855
  201POPC   C3A 2224   4.202   5.872   2.592  0.4760  0.0505 -0.1430
  201POPC   C4A 2225   4.290   5.959   3.032 -0.2418 -0.1385 -0.2359
  201POPC   C1B 2226   4.909   5.471   2.145 -0.2143  0.1258  0.1698
  201POPC   C2B 2227   4.948   5.252   2.555 -0.0077  0.0151  0.0167
  201POPC   C3B 2228   4.979   5.153   3.027  0.1316 -0.0697 -0.0992
  201POPC   C4B 2229   5.034   5.224   3.502  0.0279 -0.0918 -0.1273
  202POPC   NC3 2230   4.296   4.896   0.978  0.0584  0.0452 -0.0648
  202POPC   PO4 2231   4.431   4.905   1.373 -0.1713  0.1164  0.2706
  202POPC   GL1 2232   4.426   5.088   1.743  0.2395 -0.2140 -0.1695
  202POPC   GL2 2233   4.505   5.340   1.820 -0.0647  0.2064  0.0893
  202POPC   C1A 2234   4.343   4.822   2.121 -0.0115 -0.0687 -0.0074
  202POPC   D2A 2235   4.393   4.413   2.304  0.0303  0.0481  0.0956
  202POPC   C3A 2236   4.196   4.320   2.708 -0.2370 -0.4131 -0.1172
  202POPC   C4A 2237   3.970   4.383   3.144 -0.1507  0.1211  0.0774
  202POPC   C1B 2238   4.422   5.285   2.247 -0.2504 -0.1474  0.2889
  202POPC   C2B 2239   4.304   5.377   2.705 -0.0450  0.0005 -0.0385
  202POPC   C3B 2240   4.098   5.228   3.048  0.1175  0.1024 -0.1147
  202POPC   C4B 2241   3.736   5.015   3.115  0.1757  0.1060  0.2744
  203POPC   NC3 2242   8.398   6.901   1.852  0.1996 -0.0058  0.2215
  203POPC   PO4 2243   8.063   7.144   1.847 -0.0760  0.1636 -0.2235
  203POPC   GL1 2244   7.816   7.076   2.028 -0.0313 -0.1364  0.2700
  203POPC   GL2 2245   7.700   7.397   2.069  0.2208  0.1713 -0.1284
  203POPC   C1A 2246   7.649   7.020   2.462  0.1097  0.0029 -0.0789
  203POPC   D2A 2247   7.421   7.010   2.911  0.1006  0.0295  0.1402
  203POPC   C3A 2248   7.030   7.149   3.195  0.0302  0.1574  0.1090
  203POPC   C4A 2249   6.903   7.124   3.609  0.2540  0.2363  0.0854
  203POPC   C1B 2250   7.624   7.569   2.451 -0.1420  0.0110  0.1095
  203POPC   C2B 2251   7.326   7.507   2.812  0.1815  0.0155 -0.0326
  203POPC   C3B 2252   7.176   7.707   3.235 -0.1083 -0.0107  0.0874
  203POPC   C4B 2253   6.817   7.732   3.502  0.4246  0.2835 -0.1936
  204POPC   NC3 2254   1.730   4.810   2.091  0.3413  0.1125  0.0054
  204POPC   PO4 2255   1.998   4.984   1.885  0.1305 -0.3489 -0.1754
  204POPC   GL1 2256   2.230   4.860   2.237  0.1421 -0.0487  0.2600
  204POPC   GL2 2257   2.045   4.794   2.459 -0.1097 -0.1133 -0.1584
  204POPC   C1A 2258   2.624   4.786   2.491 -0.2149 -0.3570  0.1075
  204POPC   D2A 2259   2.853   4.612   2.896 -0.5111  0.4582  0.1156
  204POPC   C3A 2260   3.258   4.335   2.993  0.2853  0.0063 -0.0758
  204POPC   C4A 2261   3.604   4.031   3.058 -0.0223  0.1372  0.1502
  204POPC   C1B 2262   2.300   4.779   2.868  0.1490 -0.2106  0.1525
  204POPC   C2B 2263   2.416   4.525   3.237 -0.0944 -0.1118 -0.3742
  204POPC   C3B 2264   2.483   4.218   3.547 -0.0085 -0.0085 -0.1163
  204POPC   C4B 2265   2.407   4.006   3.935 -0.0686 -0.0896 -0.0467
  205POPC   NC3 2266   0.835   0.499   1.305 -0.1895 -0.0193  0.0923
  205POPC   PO4 2267   0.648   0.404   1.635 -0.2624  0.2658  0.0813
  205POPC   GL1 2268   0.849   0.451   1.949  0.1708 -0.1539 -0.1585
  205POPC   GL2 2269   0.635   0.504   2.129 -0.0047 -0.0497 -0.0715
  205POPC   C1A 2270   1.109   0.453   2.289  0.2308 -0.0197  0.1156
  205POPC   D2A 2271   1.178   0.585   2.796 -0.1493  0.0581 -0.0239
  205POPC   C3A 2272   1.080   0.716   3.185  0.3303  0.0547 -0.1672
  205POPC   C4A 2273   0.772   0.955   3.361 -0.0981 -0.2747  0.1557
  205POPC   C1B 2274   0.695   0.607   2.593  0.0366 -0.2883  0.1109
  205POPC   C2B 2275   0.623   0.448   3.015  0.0852 -0.0056  0.2024
  205POPC   C3B 2276   0.404   0.496   3.429  0.1678  0.4569 -0.0004
  205POPC   C4B 2277   0.340   0.639   3.837  0.1235 -0.0085 -0.1230
  206POPC   NC3 2278   0.220   1.421   1.542 -0.0463  0.1888  0.0431
  206POPC   PO4 2279   0.389   1.224   1.836  0.0719  0.1011  0.0128
  206POPC   GL1 2280   0.479   1.224   2.173 -0.2140 -0.1996  0.0481
  206POPC   GL2 2281   0.528   0.936   2.306 -0.4453 -0.0867 -0.0867
  206POPC   C1A 2282   0.270   1.336   2.579  0.0666  0.3646 -0.3082
  206POPC   D2A 2283   0.047   1.323   2.982 -0.1383 -0.0737  0.0866
  206POPC   C3A 2284  -0.419   1.336   3.097  0.0764 -0.4242  0.0881
  206POPC   C4A 2285  -0.522   1.468   3.470  0.0985 -0.0477 -0.0431
  206POPC   C1B 2286   0.997   0.945   2.278 -0.1421  0.0428 -0.1577
  206POPC   C2B 2287   1.427   0.810   2.414  0.0947  0.0208  0.3236
  206POPC   C3B 2288   1.595   0.381   2.516  0.2073  0.2582  0.0232
  206POPC   C4B 2289   1.990   0.386   2.643 -0.1703  0.2602 -0.0649
  207POPC   NC3 2290   1.088   8.732   1.335 -0.1252 -0.1021 -0.2170
  207POPC   PO4 2291   1.268   8.897   1.647 -0.0794 -0.0330 -0.0203
  207POPC   GL1 2292   1.093   8.845   2.017  0.1265  0.0120  0.3587
  207POPC   GL2 2293   0.988   9.109   2.112 -0.0036  0.1819 -0.1685
  207POPC   C1A 2294   0.963   8.728   2.435 -0.1371  0.0872 -0.0166
  207POPC   D2A 2295   1.169   8.695   2.794 -0.2868 -0.1835  0.3503
  207POPC   C3A 2296   0.932   8.692   3.224  0.3022 -0.1055 -0.1449
  207POPC   C4A 2297   0.846   8.593   3.641 -0.0529  0.1789  0.2364
  207POPC   C1B 2298   0.686   9.261   2.451  0.1380  0.0686 -0.1971
  207POPC   C2B 2299   0.302   9.406   2.682  0.0958  0.3529 -0.1964
  207POPC   C3B 2300   0.058   9.515   3.070 -0.1018  0.0294  0.1096
  207POPC   C4B 2301  -0.334   9.812   3.112 -0.3444  0.2832  0.3068
  208POPC   NC3 2302   9.073   1.046   2.112  0.1766 -0.2472 -0.0343
  208POPC   PO4 2303   8.861   0.769   1.914 -0.2943 -0.0978 -0.0341
  208POPC   GL1 2304   9.004   0.501   2.244 -0.0175 -0.2728 -0.2320
  208POPC   GL2 2305   9.165   0.660   2.434 -0.1487 -0.0133 -0.0095
  208POPC   C1A 2306   8.808   0.360   2.663  0.1456  0.0066  0.0365
  208POPC   D2A 2307   8.593   0.244   3.060 -0.3210  0.1193 -0.1137
  208POPC   C3A 2308   8.589  -0.100   3.342 -0.2559 -0.2332  0.0273
  208POPC   C4A 2309   8.797  -0.003   3.695 -0.0515 -0.4983  0.2219
  208POPC   C1B 2310   9.409   0.898   2.783 -0.2003  0.0420  0.1114
  208POPC   C2B 2311   9.213   0.904   3.266  0.1278  0.2039  0.2658
  208POPC   C3B 2312   9.071   1.246   3.611  0.0807 -0.0195 -0.0359
  208POPC   C4B 2313   8.917   1.661   3.795 -0.0909  0.0976 -0.1641
  209POPC   NC3 2314   5.735   0.518   1.215 -0.1547  0.1973 -0.2787
  209POPC   PO4 2315   5.502   0.241   1.278  0.1831  0.0835  0.1214
  209POPC   GL1 2316   5.402   0.091   1.605  0.0410 -0.1882  0.0637
  209POPC   GL2 2317   5.495  -0.223   1.652  0.1988  0.0640  0.1340
  209POPC   C1A 2318   5.181   0.322   1.964 -0.2284 -0.1351 -0.2594
  209POPC   D2A 2319   5.445   0.604   2.256 -0.5233 -0.1023 -0.1814
  209POPC   C3A 2320   5.476   0.496   2.722  0.0782 -0.0783  0.0150
  209POPC   C4A 2321   5.734   0.172   2.830  0.1019 -0.3335 -0.0110
  209POPC   C1B 2322   5.196  -0.211   2.055 -0.0375  0.0397 -0.1962
  209POPC   C2B 2323   5.087   0.126   2.410  0.4529 -0.1967 -0.1990
  209POPC   C3B 2324   5.033   0.413   2.792  0.2123 -0.0010  0.0522
  209POPC   C4B 2325   4.913   0.395   3.266 -0.0845 -0.0694 -0.3817
  210POPC   NC3 2326   6.223   1.748   1.394 -0.0114 -0.2860  0.1074
  210POPC   PO4 2327   6.597   1.825   1.495 -0.0603 -0.2630  0.0272
  210POPC   GL1 2328   6.505   1.558   1.747  0.1295  0.3372  0.3094
  210POPC   GL2 2329   6.371   1.303   1.614 -0.1702  0.1788  0.0254
  210POPC   C1A 2330   6.560   1.680   2.173  0.0801  0.2061 -0.0403
  210POPC   D2A 2331   6.762   1.584   2.552  0.0724 -0.0644  0.0073
  210POPC   C3A 2332   6.287   1.766   2.621  0.0046  0.6404 -0.1480
  210POPC   C4A 2333   5.915   1.694   2.971 -0.0091 -0.0956 -0.2391
  210POPC   C1B 2334   6.108   1.067   1.917 -0.1072  0.0257 -0.3119
  210POPC   C2B 2335   5.855   0.981   2.303  0.2375 -0.0795  0.0896
  210POPC   C3B 2336   5.763   0.893   2.715 -0.1605  0.0234 -0.1867
  210POPC   C4B 2337   5.962   1.065   3.087 -0.2430 -0.0332 -0.1165
  211POPC   NC3 2338   8.223   0.175   1.701 -0.0556 -0.0247  0.0512
  211POPC   PO4 2339   8.347   0.498   1.548 -0.1082 -0.0104 -0.0623
  211POPC   GL1 2340   8.251   0.606   2.019 -0.2482  0.1205  0.2133
  211POPC   GL2 2341   8.423   0.537   2.150 -0.2746 -0.0169 -0.0711
  211POPC   C1A 2342   8.037   0.816   2.400 -0.1314  0.1127  0.2183
  211POPC   D2A 2343   8.056   0.942   2.865  0.3257 -0.0653  0.0432
  211POPC   C3A 2344   8.370   0.953   3.220 -0.0168  0.1028  0.1980
  211POPC   C4A 2345   8.667   1.011   3.545  0.1185 -0.2893 -0.3850
  211POPC   C1B 2346   8.490   0.094   2.204 -0.0020  0.1921  0.1208
  211POPC   C2B 2347   8.482  -0.122   2.616  0.6165 -0.0850  0.2064
  211POPC   C3B 2348   8.164   0.020   2.953  0.0308  0.3386  0.0620
  211POPC   C4B 2349   8.199   0.459   3.131  0.1140 -0.1374  0.1416
  212POPC   NC3 2350   9.102   7.955   1.843 -0.3518 -0.0724  0.2216
  212POPC   PO4 2351   8.757   8.100   1.790  0.2461  0.0578  0.0110
  212POPC   GL1 2352   8.412   7.955   1.904  0.0439  0.0203 -0.2988
  212POPC   GL2 2353   8.179   8.135   2.007 -0.1676  0.2606 -0.2464
  212POPC   C1A 2354   8.498   7.702   2.315  0.0456 -0.2174 -0.2216
  212POPC   D2A 2355   8.730   7.617   2.709  0.2871 -0.0314 -0.0576
  212POPC   C3A 2356   8.644   7.908   3.081 -0.1931  0.0276 -0.1022
  212POPC   C4A 2357   8.410   7.746   3.449 -0.0467  0.0023 -0.0186
  212POPC   C1B 2358   8.157   8.368   2.432  0.0906  0.0297  0.0407
  212POPC   C2B 2359   8.133   8.675   2.770 -0.2488 -0.1278 -0.1600
  212POPC   C3B 2360   8.207   8.721   3.233  0.2459  0.0456 -0.0662
  212POPC   C4B 2361   8.445   8.708   3.686 -0.2183 -0.0709  0.1190
  213POPC   NC3 2362   6.350   3.348   1.672 -0.1501  0.2638 -0.2844
  213POPC   PO4 2363   6.321   2.998   1.477 -0.0136 -0.0078  0.1302
  213POPC   GL1 2364   6.287   2.905   1.771  0.1473  0.5206  0.2796
  213POPC   GL2 2365   6.045   2.946   1.914 -0.2660 -0.1951 -0.1327
  213POPC   C1A 2366   6.215   2.494   2.020  0.0742 -0.0326  0.1546
  213POPC   D2A 2367   6.248   2.062   2.104  0.1492 -0.0148 -0.0316
  213POPC   C3A 2368   6.057   1.706   1.875 -0.1645 -0.2387 -0.0852
  213POPC   C4A 2369   5.766   1.536   1.592 -0.2724 -0.2109  0.0063
  213POPC   C1B 2370   5.934   2.843   2.376  0.0269 -0.4097 -0.0598
  213POPC   C2B 2371   5.965   2.666   2.803  0.1747  0.0646 -0.2340
  213POPC   C3B 2372   5.902   2.745   3.241 -0.1171  0.0677  0.2753
  213POPC   C4B 2373   5.685   2.746   3.644 -0.0091  0.0914 -0.1750
  214POPC   NC3 2374   6.978   0.067   0.882  0.1972  0.1858  0.0429
  214POPC   PO4 2375   6.847   0.350   1.169  0.0339  0.1802  0.1016
  214POPC   GL1 2376   6.848   0.372   1.571 -0.3901 -0.1389 -0.1831
  214POPC   GL2 2377   7.106   0.203   1.578 -0.3144  0.1033  0.5350
  214POPC   C1A 2378   6.746   0.348   1.977 -0.2124  0.0458  0.1079
  214POPC   D2A 2379   6.862   0.552   2.399  0.0888  0.1226  0.4040
  214POPC   C3A 2380   6.904   0.294   2.774 -0.0306  0.0348 -0.0336
  214POPC   C4A 2381   6.991   0.036   3.117 -0.0095 -0.2204  0.0200
  214POPC   C1B 2382   7.270   0.258   2.025 -0.2337  0.3246  0.1492
  214POPC   C2B 2383   7.355   0.145   2.485  0.1934 -0.2693  0.0279
  214POPC   C3B 2384   7.322  -0.170   2.811  0.1259 -0.1485 -0.0018
  214POPC   C4B 2385   7.472  -0.292   3.223  0.3514 -0.2243 -0.0610
  215POPC   NC3 2386   3.819   8.499   1.388 -0.0875 -0.2127 -0.1148
  215POPC   PO4 2387   3.506   8.727   1.266  0.1569 -0.0584  0.2751
  215POPC   GL1 2388   3.463   8.976   1.683 -0.0793 -0.2090  0.0945
  215POPC   GL2 2389   3.680   8.831   1.734 -0.1326 -0.1849  0.1364
  215POPC   C1A 2390   3.287   9.069   2.081  0.1278  0.1477 -0.0808
  215POPC   D2A 2391   2.918   9.129   2.376 -0.2222 -0.1404 -0.3059
  215POPC   C3A 2392   2.798   8.899   2.762 -0.1066 -0.1680  0.2917
  215POPC   C4A 2393   2.594   8.973   3.148  0.2626 -0.0356 -0.0627
  215POPC   C1B 2394   3.709   8.741   2.191 -0.0241  0.1898 -0.2966
  215POPC   C2B 2395   3.902   8.784   2.622  0.0032  0.2240  0.3615
  215POPC   C3B 2396   3.682   8.762   3.046  0.3113  0.1183 -0.3095
  215POPC   C4B 2397   3.542   8.709   3.538 -0.3061 -0.2616  0.1522
  216POPC   NC3 2398   2.683   3.479   1.327  0.0411  0.1173 -0.1244
  216POPC   PO4 2399   2.569   3.085   1.330  0.1969  0.2424 -0.1775
  216POPC   GL1 2400   2.373   3.190   1.792 -0.0854  0.2584  0.2730
  216POPC   GL2 2401   2.235   3.412   1.610 -0.1882 -0.0127  0.0293
  216POPC   C1A 2402   2.192   2.988   2.183 -0.0895  0.2254 -0.0839
  216POPC   D2A 2403   1.873   2.817   2.489 -0.2601 -0.1133  0.2197
  216POPC   C3A 2404   1.750   2.469   2.704 -0.1847 -0.2025 -0.1532
  216POPC   C4A 2405   2.045   2.109   2.738  0.2463 -0.1293  0.0143
  216POPC   C1B 2406   2.006   3.415   1.950  0.1960  0.0462 -0.1453
  216POPC   C2B 2407   2.134   3.490   2.406 -0.1832 -0.0449  0.2173
  216POPC   C3B 2408   2.318   3.407   2.857 -0.0149  0.2876 -0.0355
  216POPC   C4B 2409   2.342   3.690   3.256  0.1206  0.2183  0.4296
  217POPC   NC3 2410   0.098   6.919   1.890  0.1364  0.0077 -0.0607
  217POPC   PO4 2411  -0.213   7.006   1.704  0.2793  0.1205 -0.2689
  217POPC   GL1 2412  -0.303   7.097   2.082 -0.1430  0.0640 -0.1385
  217POPC   GL2 2413  -0.056   7.111   2.323  0.0633 -0.0540  0.2526
  217POPC   C1A 2414  -0.431   6.769   2.405 -0.0158  0.1366  0.2643
  217POPC   D2A 2415  -0.627   6.642   2.813  0.1834 -0.4676  0.0697
  217POPC   C3A 2416  -1.047   6.284   2.839  0.2355 -0.0774  0.1151
  217POPC   C4A 2417  -1.302   5.885   2.749  0.1704 -0.2402 -0.3455
  217POPC   C1B 2418  -0.511   7.237   2.422  0.0768 -0.0297 -0.2263
  217POPC   C2B 2419  -0.991   7.341   2.521  0.1569  0.1908  0.1576
  217POPC   C3B 2420  -1.334   7.335   2.864 -0.1157  0.1508  0.1806
  217POPC   C4B 2421  -1.600   7.385   3.257  0.2221  0.1002 -0.2238
  218POPC   NC3 2422   6.088   4.364   1.529  0.1451 -0.1164  0.0859
  218POPC   PO4 2423   6.258   4.687   1.550 -0.1227 -0.1707 -0.1089
  218POPC   GL1 2424   6.102   4.626   1.913 -0.4967 -0.0517  0.3130
  218POPC   GL2 2425   6.351   4.715   2.028 -0.0560  0.2471 -0.4400
  218POPC   C1A 2426   6.065   4.415   2.379 -0.0130 -0.2023  0.2090
  218POPC   D2A 2427   5.976   4.292   2.798  0.1731  0.0152 -0.0269
  218POPC   C3A 2428   6.056   4.464   3.247  0.0697  0.0280  0.0624
  218POPC   C4A 2429   6.306   4.721   3.555  0.0603  0.1763  0.3242
  218POPC   C1B 2430   6.683   4.720   2.443  0.1267 -0.1010  0.0890
  218POPC   C2B 2431   6.852   4.746   2.901 -0.0339  0.4848  0.0131
  218POPC   C3B 2432   6.835   4.847   3.355  0.1652  0.2146  0.2982
  218POPC   C4B 2433   6.723   4.560   3.672 -0.2017  0.0488  0.0346
  219POPC   NC3 2434   6.454   0.178   1.467  0.0207 -0.1426 -0.2532
  219POPC   PO4 2435   6.224   0.419   1.248  0.0197 -0.2706  0.3047
  219POPC   GL1 2436   6.042   0.436   1.578  0.0457 -0.2539 -0.1291
  219POPC   GL2 2437   5.918   0.189   1.603  0.0954 -0.1058  0.2453
  219POPC   C1A 2438   5.926   0.541   2.048 -0.0350  0.0112  0.2364
  219POPC   D2A 2439   5.917   0.440   2.481 -0.0363  0.0459 -0.1467
  219POPC   C3A 2440   6.211   0.629   2.743 -0.0768  0.2840  0.3819
  219POPC   C4A 2441   6.526   0.660   3.011  0.1210  0.0554 -0.3643
  219POPC   C1B 2442   5.649   0.115   1.980 -0.1534  0.3052 -0.0570
  219POPC   C2B 2443   5.531  -0.032   2.417 -0.1123 -0.2200 -0.1782
  219POPC   C3B 2444   5.324  -0.081   2.787 -0.0717  0.0611 -0.1681
  219POPC   C4B 2445   5.417   0.032   3.238  0.0057 -0.2540 -0.1426
  220POPC   NC3 2446   3.718   6.802   1.600  0.0409 -0.4343  0.1067
  220POPC   PO4 2447   3.400   6.914   1.794  0.1542 -0.1263  0.1500
  220POPC   GL1 2448   3.550   6.946   2.145  0.3553 -0.3635  0.1464
  220POPC   GL2 2449   3.856   7.015   2.030  0.1558  0.0313 -0.0818
  220POPC   C1A 2450   3.505   6.870   2.603  0.0233  0.0529  0.4117
  220POPC   D2A 2451   3.362   6.617   2.992  0.1026  0.0710  0.2822
  220POPC   C3A 2452   3.577   6.291   3.179  0.0729 -0.0407  0.0704
  220POPC   C4A 2453   3.835   6.041   3.371 -0.0076  0.0266  0.0913
  220POPC   C1B 2454   3.845   7.154   2.471 -0.1944 -0.2185  0.1473
  220POPC   C2B 2455   3.761   7.536   2.735  0.0273 -0.0922  0.0872
  220POPC   C3B 2456   3.779   7.592   3.198 -0.0306 -0.0540  0.2533
  220POPC   C4B 2457   3.591   7.741   3.549 -0.0520 -0.0307 -0.0589
  221POPC   NC3 2458   6.259   5.143   1.331  0.0793  0.2585  0.5438
  221POPC   PO4 2459   5.835   5.121   1.466 -0.0925 -0.0646  0.2982
  221POPC   GL1 2460   5.626   5.370   1.646 -0.1892 -0.0923 -0.2180
  221POPC   GL2 2461   5.444   5.347   1.884  0.0240  0.1260  0.2493
  221POPC   C1A 2462   5.706   5.813   1.846 -0.0898  0.0945  0.0920
  221POPC   D2A 2463   5.767   5.888   2.321 -0.1147 -0.0491  0.2561
  221POPC   C3A 2464   5.709   6.271   2.560 -0.0100 -0.1240 -0.1939
  221POPC   C4A 2465   5.538   6.588   2.858  0.1638  0.2026 -0.0049
  221POPC   C1B 2466   5.430   5.418   2.382  0.0789  0.1793  0.0347
  221POPC   C2B 2467   5.520   5.739   2.719  0.1751 -0.3832 -0.1343
  221POPC   C3B 2468   5.558   6.054   3.098  0.1631 -0.2703 -0.0078
  221POPC   C4B 2469   5.249   5.958   3.424  0.2181  0.0675 -0.0094
  222POPC   NC3 2470   6.829   7.623   1.042 -0.0101 -0.2056 -0.2009
  222POPC   PO4 2471   6.630   7.698   1.369  0.1830 -0.1003 -0.0903
  222POPC   GL1 2472   6.339   7.613   1.683  0.0639 -0.0140 -0.0083
  222POPC   GL2 2473   6.248   7.905   1.630 -0.4485  0.0650  0.2162
  222POPC   C1A 2474   6.143   7.436   2.075  0.1077 -0.1266  0.1155
  222POPC   D2A 2475   5.839   7.399   2.350  0.1399 -0.1555 -0.1632
  222POPC   C3A 2476   5.689   7.651   2.631  0.1930 -0.0978  0.2698
  222POPC   C4A 2477   5.794   7.804   3.088 -0.0562  0.1033 -0.3105
  222POPC   C1B 2478   6.338   7.946   2.078  0.1158 -0.1261  0.1862
  222POPC   C2B 2479   6.092   7.827   2.369 -0.0468  0.0179 -0.0947
  222POPC   C3B 2480   6.271   7.501   2.631  0.0474  0.3984 -0.0593
  222POPC   C4B 2481   6.066   7.329   2.998  0.0599 -0.2532 -0.1207
  223POPC   NC3 2482   8.262   3.854   1.993  0.1158  0.2561  0.0042
  223POPC   PO4 2483   8.077   3.632   1.695  0.1654  0.2438  0.0245
  223POPC   GL1 2484   7.877   3.634   2.022 -0.3293 -0.2416 -0.2334
  223POPC   GL2 2485   7.649   3.543   2.215 -0.0125 -0.1361 -0.0665
  223POPC   C1A 2486   8.024   3.597   2.531  0.1351  0.1748  0.1419
  223POPC   D2A 2487   7.814   3.783   2.901  0.0412 -0.0103 -0.1688
  223POPC   C3A 2488   7.496   3.572   3.158  0.2042  0.2206 -0.0795
  223POPC   C4A 2489   7.200   3.370   3.469  0.1745 -0.0147 -0.1251
  223POPC   C1B 2490   7.823   3.122   2.399 -0.0709  0.3927 -0.0308
  223POPC   C2B 2491   7.782   2.682   2.414 -0.0978  0.2085 -0.1209
  223POPC   C3B 2492   7.778   2.373   2.753  0.0280 -0.0661 -0.0081
  223POPC   C4B 2493   8.048   1.992   2.950  0.2401  0.1156  0.2905
  224POPC   NC3 2494   2.774   2.515   0.957  0.0320 -0.1197 -0.2734
  224POPC   PO4 2495   2.891   2.686   1.300 -0.0828  0.0992  0.1543
  224POPC   GL1 2496   2.781   2.572   1.724 -0.0198  0.3283 -0.1586
  224POPC   GL2 2497   2.550   2.734   1.833  0.1443  0.1292  0.0411
  224POPC   C1A 2498   3.058   2.663   2.095 -0.1742  0.1693  0.0891
  224POPC   D2A 2499   3.317   2.983   2.352 -0.0116 -0.1026  0.0974
  224POPC   C3A 2500   3.222   2.882   2.817 -0.0472  0.1427 -0.0403
  224POPC   C4A 2501   3.210   2.455   3.131  0.0112  0.0543  0.4455
  224POPC   C1B 2502   2.655   2.782   2.312 -0.1408 -0.1317  0.0728
  224POPC   C2B 2503   2.783   2.602   2.670  0.3150  0.2221 -0.1663
  224POPC   C3B 2504   2.579   2.468   3.081 -0.0157 -0.0990 -0.0873
  224POPC   C4B 2505   2.845   2.290   3.382  0.2764 -0.0533 -0.2320
  225POPC   NC3 2506   7.645   2.285   1.474 -0.2159  0.2414  0.1229
  225POPC   PO4 2507   7.841   2.361   1.820 -0.2799  0.1335 -0.1367
  225POPC   GL1 2508   7.601   2.329   2.015 -0.0482 -0.1840 -0.0420
  225POPC   GL2 2509   7.360   2.207   1.940 -0.0652  0.0458 -0.0416
  225POPC   C1A 2510   7.485   2.082   2.474  0.1441 -0.0395  0.5239
  225POPC   D2A 2511   7.337   1.905   2.873 -0.1200  0.1522  0.0068
  225POPC   C3A 2512   6.901   1.815   2.964 -0.1367 -0.3677 -0.3841
  225POPC   C4A 2513   6.478   1.808   3.104  0.1520 -0.1853  0.2217
  225POPC   C1B 2514   6.981   2.126   2.269 -0.0833 -0.1616  0.0106
  225POPC   C2B 2515   6.657   2.088   2.599  0.0458 -0.3223  0.1900
  225POPC   C3B 2516   6.603   2.323   3.000 -0.3515  0.3257  0.1584
  225POPC   C4B 2517   6.493   2.761   3.082  0.1034  0.0882 -0.0520
  226POPC   NC3 2518   0.159   2.522   1.585 -0.1736  0.1803 -0.0925
  226POPC   PO4 2519   0.383   2.798   1.722  0.0641  0.0627  0.1086
  226POPC   GL1 2520   0.548   2.595   1.992 -0.2386 -0.1073 -0.2050
  226POPC   GL2 2521   0.254   2.591   2.180 -0.0354  0.0879 -0.0335
  226POPC   C1A 2522   0.726   2.204   2.175  0.4251 -0.2152 -0.0674
  226POPC   D2A 2523   0.515   1.755   2.286 -0.2489  0.2057  0.1201
  226POPC   C3A 2524   0.792   1.435   2.452  0.0307 -0.0088  0.0403
  226POPC   C4A 2525   0.789   1.160   2.845  0.2508  0.1549 -0.0114
  226POPC   C1B 2526   0.403   2.291   2.515  0.0295  0.2228  0.3372
  226POPC   C2B 2527   0.412   1.875   2.736  0.2258 -0.0489  0.1497
  226POPC   C3B 2528   0.645   1.666   3.056  0.2766 -0.5107  0.0610
  226POPC   C4B 2529   0.764   1.489   3.447 -0.0259  0.0784  0.2940
  227POPE   NH3 2530   7.213   4.063   1.568  0.4047 -0.1234  0.4178
  227POPE   PO4 2531   7.029   4.154   1.817  0.2486 -0.1672  0.0926
  227POPE   GL1 2532   6.686   3.988   1.949  0.0887  0.1630 -0.2550
  227POPE   GL2 2533   6.672   3.781   2.038  0.1259  0.3024 -0.1719
  227POPE   C1A 2534   6.544   4.255   2.257  0.1832 -0.0214  0.0189
  227POPE   D2A 2535   6.515   4.259   2.735  0.0869  0.0520  0.1883
  227POPE   C3A 2536   6.290   4.654   2.771  0.0206 -0.1359  0.0653
  227POPE   C4A 2537   6.437   4.985   3.113  0.0264  0.4593 -0.0218
  227POPE   C1B 2538   6.844   3.890   2.464  0.1301  0.3006 -0.1000
  227POPE   C2B 2539   7.012   4.294   2.686  0.1286 -0.2247  0.1753
  227POPE   C3B 2540   7.278   4.659   2.596  0.2125 -0.1975 -0.1417
  227POPE   C4B 2541   7.461   5.033   2.734 -0.2834 -0.0222 -0.3188
  228POPE   NH3 2542   8.648   3.120   2.016  0.1746 -0.3262 -0.0600
  228POPE   PO4 2543   8.806   3.340   2.167 -0.1204 -0.2658 -0.0819
  228POPE   GL1 2544   8.599   3.352   2.467 -0.0127  0.0903 -0.1823
  228POPE   GL2 2545   8.555   3.599   2.519  0.2567  0.0448 -0.0703
  228POPE   C1A 2546   8.652   3.196   2.903 -0.1325  0.2276 -0.2154
  228POPE   D2A 2547   8.760   3.524   3.243  0.1194 -0.0837 -0.1366
  228POPE   C3A 2548   9.076   3.791   3.316  0.0079  0.0840 -0.0779
  228POPE   C4A 2549   9.354   3.941   3.676  0.4627 -0.5000 -0.1614
  228POPE   C1B 2550   8.826   3.791   2.863 -0.0820  0.0049  0.0515
  228POPE   C2B 2551   8.706   4.195   3.127 -0.3282  0.1641 -0.1463
  228POPE   C3B 2552   8.362   4.338   3.389  0.1747  0.0153 -0.0895
  228POPE   C4B 2553   8.210   4.518   3.766  0.0640  0.1826  0.2547
  229POPE   NH3 2554   0.805   6.035   1.804 -0.1876 -0.0383 -0.2179
  229POPE   PO4 2555   1.014   6.072   2.074  0.0609  0.0085  0.2678
  229POPE   GL1 2556   0.979   5.950   2.437 -0.3318  0.0935 -0.2177
  229POPE   GL2 2557   1.323   6.110   2.531 -0.3162  0.3366  0.1527
  229POPE   C1A 2558   1.077   5.962   2.941  0.0355  0.2132 -0.1074
  229POPE   D2A 2559   1.282   6.113   3.339  0.2146  0.2247 -0.0791
  229POPE   C3A 2560   0.870   6.103   3.590  0.0202 -0.2123  0.1027
  229POPE   C4A 2561   0.624   6.458   3.657  0.2272 -0.0919 -0.2168
  229POPE   C1B 2562   1.535   6.051   2.954  0.2421  0.0194  0.2179
  229POPE   C2B 2563   1.760   6.305   3.206  0.3872 -0.1111 -0.1462
  229POPE   C3B 2564   2.130   6.515   3.437  0.0977 -0.1410 -0.0243
  229POPE   C4B 2565   2.562   6.595   3.558 -0.0208 -0.2077 -0.0622
  230POPE   NH3 2566   5.560   8.451   1.103  0.3179  0.1615 -0.0796
  230POPE   PO4 2567   5.768   8.615   1.309  0.4044  0.1278  0.2389
  230POPE   GL1 2568   5.885   8.573   1.638 -0.2641  0.0199 -0.0840
  230POPE   GL2 2569   5.713   8.308   1.729  0.1648 -0.1983 -0.2646
  230POPE   C1A 2570   6.077   8.877   1.930  0.2212  0.1420  0.0122
  230POPE   D2A 2571   6.076   9.120   2.310 -0.1593 -0.2635  0.1570
  230POPE   C3A 2572   6.437   9.473   2.368 -0.1557  0.0283 -0.2190
  230POPE   C4A 2573   6.450   9.927   2.316  0.2068 -0.3880 -0.1620
  230POPE   C1B 2574   5.631   8.627   2.067  0.1178 -0.1271  0.3483
  230POPE   C2B 2575   5.690   8.640   2.491  0.1445 -0.1605 -0.1517
  230POPE   C3B 2576   5.608   8.611   2.905 -0.2994  0.0078 -0.0681
  230POPE   C4B 2577   5.397   8.654   3.349  0.1526  0.1477  0.1182
  231POPE   NH3 2578   4.337   8.264   1.512 -0.0281  0.1038  0.0016
  231POPE   PO4 2579   4.063   8.089   1.583 -0.0373  0.0911 -0.0569
  231POPE   GL1 2580   4.041   7.940   1.930 -0.1866  0.1623  0.0456
  231POPE   GL2 2581   3.733   7.931   2.076 -0.1290 -0.0290 -0.2287
  231POPE   C1A 2582   4.078   7.695   2.374  0.0929 -0.0485  0.2682
  231POPE   D2A 2583   4.109   7.876   2.775  0.0398  0.0926 -0.0621
  231POPE   C3A 2584   4.242   7.812   3.148  0.1590 -0.1919 -0.0116
  231POPE   C4A 2585   4.604   8.008   3.364  0.0793  0.2368  0.1809
  231POPE   C1B 2586   3.789   8.261   2.358  0.0020 -0.0572  0.1195
  231POPE   C2B 2587   3.537   8.370   2.724 -0.1225 -0.1236  0.1204
  231POPE   C3B 2588   3.271   8.529   3.145 -0.2332  0.2297  0.0316
  231POPE   C4B 2589   2.900   8.710   3.400  0.2536  0.1757  0.3888
  232POPE   NH3 2590   7.172   5.298   1.641 -0.1313  0.2814 -0.1838
  232POPE   PO4 2591   7.140   4.996   1.758  0.2109 -0.1311  0.3395
  232POPE   GL1 2592   6.869   5.038   2.058 -0.0122 -0.2212 -0.2061
  232POPE   GL2 2593   6.611   5.207   2.067 -0.1270 -0.1801 -0.1831
  232POPE   C1A 2594   7.048   5.192   2.495 -0.0010 -0.0981 -0.1995
  232POPE   D2A 2595   7.011   5.294   2.976 -0.0074 -0.1399 -0.2661
  232POPE   C3A 2596   7.310   5.180   3.266  0.0313 -0.0979  0.2509
  232POPE   C4A 2597   7.502   5.057   3.701 -0.3841  0.2316  0.2014
  232POPE   C1B 2598   6.533   5.636   2.375  0.2411  0.2253 -0.2153
  232POPE   C2B 2599   6.384   5.592   2.797  0.1606  0.0774 -0.0502
  232POPE   C3B 2600   6.622   5.500   3.184 -0.0995  0.0112 -0.1132
  232POPE   C4B 2601   6.512   5.252   3.578 -0.0936 -0.0353  0.0655
  233POPE   NH3 2602   0.115   7.130   1.343 -0.2131  0.1008 -0.0476
  233POPE   PO4 2603   0.373   7.193   1.554  0.2894 -0.0858 -0.0033
  233POPE   GL1 2604   0.379   7.311   1.973  0.0400 -0.0519  0.0290
  233POPE   GL2 2605   0.189   7.476   1.935 -0.2710 -0.3656 -0.0325
  233POPE   C1A 2606   0.405   7.452   2.419 -0.0671 -0.0427 -0.0170
  233POPE   D2A 2607   0.094   7.472   2.754 -0.0274 -0.1071 -0.0429
  233POPE   C3A 2608  -0.041   7.861   2.940 -0.1006  0.3300  0.1195
  233POPE   C4A 2609  -0.022   8.276   3.120 -0.1440  0.0677  0.3180
  233POPE   C1B 2610  -0.120   7.601   2.234  0.0400  0.0991  0.1371
  233POPE   C2B 2611  -0.208   7.990   2.413 -0.3581  0.1780  0.2275
  233POPE   C3B 2612  -0.578   8.157   2.608 -0.0816  0.2095  0.1539
  233POPE   C4B 2613  -0.866   8.220   2.953 -0.0027  0.1594  0.0817
  234POPE   NH3 2614   4.143   0.890   0.675  0.0680  0.0987 -0.0374
  234POPE   PO4 2615   4.391   0.748   0.834  0.2843 -0.1456  0.0635
  234POPE   GL1 2616   4.333   0.942   1.110  0.1246 -0.2117  0.2025
  234POPE   GL2 2617   4.448   0.806   1.351 -0.1995  0.1634  0.4023
  234POPE   C1A 2618   4.044   1.035   1.442  0.2506  0.0274  0.3576
  234POPE   D2A 2619   3.809   1.324   1.790 -0.0594 -0.0011 -0.1479
  234POPE   C3A 2620   3.651   1.139   2.195  0.1976  0.3198 -0.3568
  234POPE   C4A 2621   3.414   0.854   2.470  0.0836 -0.1187 -0.3133
  234POPE   C1B 2622   4.378   0.830   1.813  0.0350 -0.2204 -0.0969
  234POPE   C2B 2623   4.129   1.072   2.123 -0.2071  0.0867 -0.2332
  234POPE   C3B 2624   3.954   1.153   2.568  0.0538  0.1491  0.1332
  234POPE   C4B 2625   3.738   1.095   3.023 -0.0332 -0.3035 -0.2036
  235POPE   NH3 2626   0.918   5.535   1.779 -0.1160 -0.2924 -0.2926
  235POPE   PO4 2627   1.253   5.578   1.916  0.1497 -0.1228 -0.0027
  235POPE   GL1 2628   1.359   5.723   2.233  0.0385  0.0249  0.0233
  235POPE   GL2 2629   1.626   5.720   2.311 -0.1026 -0.0866  0.2397
  235POPE   C1A 2630   1.158   5.575   2.618 -0.1961  0.3287  0.2037
  235POPE   D2A 2631   0.946   5.425   3.055  0.1340 -0.2607  0.0017
  235POPE   C3A 2632   0.770   5.629   3.451 -0.1209 -0.0545  0.1186
  235POPE   C4A 2633   0.798   5.715   3.963 -0.0535 -0.2368  0.1405
  235POPE   C1B 2634   1.891   5.757   2.646  0.1644 -0.1388  0.2032
  235POPE   C2B 2635   1.874   5.699   3.098  0.1212 -0.2308 -0.3138
  235POPE   C3B 2636   1.666   5.651   3.512 -0.3619  0.0293  0.1280
  235POPE   C4B 2637   1.589   5.320   3.850  0.0908 -0.0561 -0.0065
  236POPE   NH3 2638   1.676   6.323   1.737  0.2903 -0.0918 -0.0559
  236POPE   PO4 2639   1.612   6.037   1.896  0.0921 -0.2055 -0.0664
  236POPE   GL1 2640   1.747   6.293   2.177  0.1741 -0.0458 -0.0127
  236POPE   GL2 2641   1.950   6.104   2.307  0.1203  0.0743 -0.0884
  236POPE   C1A 2642   1.625   6.518   2.576 -0.0362  0.1620 -0.3458
  236POPE   D2A 2643   1.275   6.502   2.912  0.1607 -0.3081 -0.0551
  236POPE   C3A 2644   0.896   6.412   3.177 -0.1488  0.2715 -0.1022
  236POPE   C4A 2645   0.443   6.196   3.250  0.3399 -0.2204 -0.0809
  236POPE   C1B 2646   2.026   6.205   2.763  0.0295 -0.2059 -0.0981
  236POPE   C2B 2647   2.266   6.024   3.121  0.1885  0.1333  0.0652
  236POPE   C3B 2648   2.454   6.119   3.507 -0.2196 -0.0797 -0.0793
  236POPE   C4B 2649   2.813   6.202   3.762  0.0327 -0.1779  0.0785
  237POPE   NH3 2650   5.022   7.794   1.567 -0.0521  0.0459 -0.3544
  237POPE   PO4 2651   5.006   7.509   1.759 -0.1282 -0.0447 -0.2461
  237POPE   GL1 2652   5.041   7.629   2.088  0.1730  0.0387  0.3494
  237POPE   GL2 2653   4.799   7.449   2.223 -0.1229 -0.1226 -0.1223
  237POPE   C1A 2654   5.202   7.909   2.364 -0.1584  0.2634 -0.4172
  237POPE   D2A 2655   4.975   8.141   2.694 -0.1700  0.2371 -0.0544
  237POPE   C3A 2656   4.717   8.426   2.495 -0.3462  0.0654  0.0880
  237POPE   C4A 2657   4.679   8.875   2.363  0.1725 -0.0055 -0.0972
  237POPE   C1B 2658   4.791   7.243   2.656 -0.0116 -0.2297 -0.2112
  237POPE   C2B 2659   5.025   7.201   3.067  0.1516  0.0558  0.1563
  237POPE   C3B 2660   5.119   7.144   3.540  0.0529  0.1817 -0.1127
  237POPE   C4B 2661   4.854   7.335   3.946  0.1941  0.0870 -0.3893
  238POPE   NH3 2662   0.736   3.072   1.469  0.0506  0.2388 -0.2816
  238POPE   PO4 2663   0.886   2.864   1.649 -0.0175  0.1239 -0.0200
  238POPE   GL1 2664   1.066   2.680   1.889 -0.1684  0.0952  0.0295
  238POPE   GL2 2665   0.921   2.731   2.113  0.0261  0.0217  0.2745
  238POPE   C1A 2666   1.465   2.784   2.169  0.0173  0.1976  0.2730
  238POPE   D2A 2667   1.294   2.939   2.596  0.1050 -0.1442  0.0282
  238POPE   C3A 2668   1.012   2.870   2.992 -0.2612  0.1676  0.4229
  238POPE   C4A 2669   0.951   2.601   3.293 -0.0921 -0.1562 -0.0212
  238POPE   C1B 2670   0.732   2.723   2.517  0.0338 -0.0371  0.0145
  238POPE   C2B 2671   0.595   2.564   2.881  0.3748  0.3802 -0.1088
  238POPE   C3B 2672   0.301   2.583   3.209 -0.0224  0.1135  0.3393
  238POPE   C4B 2673  -0.116   2.454   3.347 -0.1539  0.2230  0.1448
  239POPE   NH3 2674   5.362   4.063   1.469 -0.4315 -0.0243 -0.2404
  239POPE   PO4 2675   5.618   4.228   1.558  0.0386 -0.0937 -0.0049
  239POPE   GL1 2676   5.540   4.253   1.974  0.3957 -0.0258 -0.2856
  239POPE   GL2 2677   5.267   4.169   2.011 -0.0122  0.3605  0.1436
  239POPE   C1A 2678   5.646   4.636   2.199  0.0163  0.0014  0.0292
  239POPE   D2A 2679   5.765   5.068   2.124 -0.2507  0.1579  0.3103
  239POPE   C3A 2680   6.214   5.113   2.300  0.1133  0.2348 -0.0079
  239POPE   C4A 2681   6.559   5.130   2.619 -0.2899 -0.2160 -0.0771
  239POPE   C1B 2682   5.084   3.989   2.419  0.0042  0.0018 -0.0709
  239POPE   C2B 2683   5.104   4.171   2.816 -0.0804  0.1422 -0.0734
  239POPE   C3B 2684   5.224   4.243   3.270  0.1717 -0.1223 -0.2740
  239POPE   C4B 2685   5.584   4.391   3.464 -0.0954 -0.1735  0.2893
  240POPE   NH3 2686   9.069   3.627   1.877  0.2581 -0.1133 -0.2404
  240POPE   PO4 2687   8.917   3.834   2.063 -0.0527  0.0034  0.1783
  240POPE   GL1 2688   8.882   4.063   2.272  0.2091  0.0222  0.1162
  240POPE   GL2 2689   8.928   4.357   2.241  0.0312 -0.0107 -0.2223
  240POPE   C1A 2690   8.576   4.134   2.601  0.0792  0.1100  0.1392
  240POPE   D2A 2691   8.281   3.970   2.912  0.1163  0.0698 -0.0681
  240POPE   C3A 2692   8.277   3.565   2.967  0.0112  0.1688 -0.4044
  240POPE   C4A 2693   8.360   3.221   3.326 -0.0991  0.3035  0.1672
  240POPE   C1B 2694   9.026   4.327   2.713 -0.1521  0.0134  0.1990
  240POPE   C2B 2695   9.329   4.109   2.953  0.0593 -0.1652 -0.0450
  240POPE   C3B 2696   9.583   4.219   3.307 -0.2306  0.2355  0.0290
  240POPE   C4B 2697   9.588   4.395   3.756 -0.0293 -0.2174 -0.0978
  241POPE   NH3 2698   2.545   0.759   1.138 -0.2124  0.0640 -0.3098
  241POPE   PO4 2699   2.517   0.992   1.329 -0.0573  0.2294 -0.1400
  241POPE   GL1 2700   2.613   0.840   1.665  0.0319 -0.0630 -0.1335
  241POPE   GL2 2701   2.731   0.621   1.673  0.0397 -0.0373 -0.2625
  241POPE   C1A 2702   2.880   0.845   2.058 -0.3792 -0.2701 -0.0990
  241POPE   D2A 2703   2.898   1.141   2.406  0.0272  0.0270 -0.1141
  241POPE   C3A 2704   2.561   1.179   2.754 -0.2959  0.1438 -0.0180
  241POPE   C4A 2705   2.170   1.054   2.879  0.0687 -0.0449 -0.1508
  241POPE   C1B 2706   2.874   0.386   2.098  0.0135  0.1307  0.3239
  241POPE   C2B 2707   2.946   0.617   2.512  0.1054  0.0492  0.0627
  241POPE   C3B 2708   2.843   0.721   2.932  0.0716  0.0363 -0.0357
  241POPE   C4B 2709   2.572   0.964   3.222 -0.0217  0.3563 -0.1248
  242POPE   NH3 2710   3.715   7.738   1.594  0.0898 -0.2406 -0.0080
  242POPE   PO4 2711   3.487   8.005   1.560 -0.1802 -0.0932 -0.2775
  242POPE   GL1 2712   3.205   8.050   1.809 -0.0259 -0.3868 -0.0774
  242POPE   GL2 2713   3.192   7.853   2.014  0.0278  0.0438  0.1096
  242POPE   C1A 2714   3.237   8.384   2.098  0.1813 -0.4796 -0.0801
  242POPE   D2A 2715   2.990   8.548   2.396 -0.1553 -0.3105  0.1179
  242POPE   C3A 2716   3.329   8.842   2.569  0.1648 -0.1071  0.1424
  242POPE   C4A 2717   3.389   9.121   2.877 -0.2870 -0.1597 -0.1452
  242POPE   C1B 2718   3.005   7.753   2.412 -0.2004  0.0417  0.0857
  242POPE   C2B 2719   2.826   7.695   2.783 -0.0497  0.2092 -0.2062
  242POPE   C3B 2720   2.417   7.560   3.000 -0.0404  0.0873 -0.2035
  242POPE   C4B 2721   2.039   7.351   3.140 -0.2297  0.0416 -0.0097
  243POPE   NH3 2722   7.623   4.970   1.786 -0.2152 -0.0708 -0.1131
  243POPE   PO4 2723   7.653   5.276   1.801 -0.1891  0.0500 -0.2722
  243POPE   GL1 2724   7.411   5.442   2.103  0.0894  0.0953  0.0314
  243POPE   GL2 2725   7.231   5.644   2.131  0.1200 -0.0951  0.3883
  243POPE   C1A 2726   7.550   5.483   2.555  0.4599 -0.4548 -0.0143
  243POPE   D2A 2727   7.449   5.540   2.933 -0.1168 -0.0100 -0.1093
  243POPE   C3A 2728   7.716   5.806   3.247 -0.1358  0.3443 -0.1036
  243POPE   C4A 2729   7.901   6.267   3.287  0.1863 -0.1011  0.0918
  243POPE   C1B 2730   7.150   5.756   2.552 -0.2066 -0.2894  0.0788
  243POPE   C2B 2731   7.017   5.782   3.013  0.0498  0.0368 -0.0964
  243POPE   C3B 2732   7.237   5.707   3.409 -0.2519 -0.0050  0.2875
  243POPE   C4B 2733   7.242   5.950   3.755  0.3837 -0.2303 -0.0081
  244POPE   NH3 2734   7.376   8.880   1.434 -0.1554  0.1525  0.0362
  244POPE   PO4 2735   7.665   8.892   1.554  0.2571 -0.1519 -0.2620
  244POPE   GL1 2736   7.651   9.014   1.872  0.3726  0.2556 -0.3024
  244POPE   GL2 2737   7.869   9.060   1.965  0.1100 -0.0763 -0.1763
  244POPE   C1A 2738   7.385   8.844   2.209  0.0218 -0.2582  0.0421
  244POPE   D2A 2739   6.981   8.875   2.400 -0.1867  0.0348 -0.0113
  244POPE   C3A 2740   6.857   8.795   2.825  0.0195  0.1114  0.1683
  244POPE   C4A 2741   6.898   8.644   3.233 -0.0681 -0.1969  0.0262
  244POPE   C1B 2742   7.760   9.359   2.286 -0.1252  0.1462  0.0575
  244POPE   C2B 2743   7.754   9.618   2.663  0.0520  0.0145  0.2037
  244POPE   C3B 2744   7.760   9.778   3.096 -0.0781 -0.0245  0.1715
  244POPE   C4B 2745   7.909   9.905   3.494  0.1210 -0.1853  0.2096
  245POPE   NH3 2746   1.045   7.883   1.637 -0.1890  0.2310  0.0771
  245POPE   PO4 2747   1.239   7.857   1.877  0.0840 -0.0050 -0.1946
  245POPE   GL1 2748   1.247   8.162   2.207  0.0586  0.4018  0.0651
  245POPE   GL2 2749   0.998   8.310   2.217  0.1254  0.2111 -0.2848
  245POPE   C1A 2750   1.467   8.490   2.458 -0.3703 -0.0656 -0.0635
  245POPE   D2A 2751   1.434   8.919   2.326 -0.0745 -0.2765  0.2581
  245POPE   C3A 2752   1.150   9.164   2.616  0.0585  0.0596 -0.1905
  245POPE   C4A 2753   0.795   9.056   2.868  0.2065 -0.1066  0.0042
  245POPE   C1B 2754   1.104   8.190   2.653 -0.1391 -0.1297  0.0356
  245POPE   C2B 2755   0.934   8.075   3.066  0.2118 -0.1281  0.1456
  245POPE   C3B 2756   0.767   7.806   3.422 -0.0486  0.0260 -0.2628
  245POPE   C4B 2757   0.569   7.463   3.681 -0.0578  0.1577 -0.0230
  246POPE   NH3 2758   4.710   2.656   1.187 -0.0522  0.0300  0.1586
  246POPE   PO4 2759   4.433   2.566   1.349  0.1244 -0.2380 -0.1130
  246POPE   GL1 2760   4.600   2.701   1.688 -0.0614 -0.0857  0.4205
  246POPE   GL2 2761   4.701   2.987   1.732  0.2818  0.2357 -0.1656
  246POPE   C1A 2762   4.604   2.585   2.139 -0.1085  0.0706 -0.0882
  246POPE   D2A 2763   4.468   2.385   2.523 -0.0420  0.2286 -0.0398
  246POPE   C3A 2764   4.570   2.080   2.823 -0.1370  0.2261 -0.1424
  246POPE   C4A 2765   4.656   1.777   3.180  0.0577  0.2285 -0.0713
  246POPE   C1B 2766   5.030   2.672   1.903 -0.0167  0.1109 -0.0501
  246POPE   C2B 2767   5.234   2.423   2.248  0.2309 -0.4609  0.2346
  246POPE   C3B 2768   5.511   2.546   2.556  0.1316  0.1886  0.0618
  246POPE   C4B 2769   5.511   2.860   2.868 -0.1992 -0.1672  0.1561
  247POPE   NH3 2770   7.745   6.758   1.652  0.1519  0.3719 -0.0731
  247POPE   PO4 2771   7.634   6.470   1.588 -0.0905 -0.3210  0.3438
  247POPE   GL1 2772   7.634   6.310   1.960  0.0491  0.3132  0.3396
  247POPE   GL2 2773   7.494   6.110   2.131  0.0200 -0.0173 -0.3910
  247POPE   C1A 2774   7.945   6.113   2.339 -0.0238  0.1097  0.0019
  247POPE   D2A 2775   8.088   5.621   2.445  0.0174 -0.2458  0.0814
  247POPE   C3A 2776   7.930   5.404   2.840  0.0246 -0.1088  0.1564
  247POPE   C4A 2777   7.814   5.048   3.120 -0.3010 -0.0551  0.2708
  247POPE   C1B 2778   7.446   6.159   2.580  0.2551  0.1057 -0.3921
  247POPE   C2B 2779   7.318   6.140   3.015  0.1556  0.1355 -0.0072
  247POPE   C3B 2780   7.434   6.275   3.403  0.0456 -0.1445  0.0993
  247POPE   C4B 2781   7.415   6.469   3.793  0.2296 -0.2086  0.1882
  248POPE   NH3 2782   4.020   1.354   0.983 -0.3497 -0.0397 -0.2013
  248POPE   PO4 2783   4.354   1.401   0.915 -0.1395  0.1775 -0.2393
  248POPE   GL1 2784   4.414   1.289   1.337 -0.2075 -0.5651  0.1555
  248POPE   GL2 2785   4.238   1.493   1.522 -0.2446  0.0672  0.1567
  248POPE   C1A 2786   4.647   1.269   1.745 -0.2377  0.2700 -0.2070
  248POPE   D2A 2787   4.634   1.007   2.188 -0.2917 -0.0548  0.0396
  248POPE   C3A 2788   4.433   1.072   2.620  0.3206 -0.0195  0.1028
  248POPE   C4A 2789   4.222   1.027   3.032 -0.2136 -0.0274  0.1729
  248POPE   C1B 2790   4.327   1.527   1.984 -0.1930  0.0350  0.2589
  248POPE   C2B 2791   4.281   1.478   2.439 -0.1128 -0.2420 -0.1815
  248POPE   C3B 2792   4.250   1.554   2.930  0.0151 -0.0849  0.0592
  248POPE   C4B 2793   3.899   1.590   3.211 -0.1841  0.2621 -0.1676
  249POPE   NH3 2794   1.470   8.518   1.932  0.0549 -0.2553 -0.0369
  249POPE   PO4 2795   1.511   8.258   1.787  0.0551  0.1270 -0.0614
  249POPE   GL1 2796   1.826   8.228   2.051 -0.3812  0.0455  0.0299
  249POPE   GL2 2797   1.785   8.020   2.219  0.1046  0.1044 -0.0606
  249POPE   C1A 2798   2.270   8.374   2.166  0.1301 -0.2830  0.1830
  249POPE   D2A 2799   2.565   8.735   2.273  0.3046  0.0305  0.2353
  249POPE   C3A 2800   2.723   9.058   1.964 -0.1129  0.1038 -0.0592
  249POPE   C4A 2801   3.055   8.973   1.695 -0.2176 -0.2794 -0.2503
  249POPE   C1B 2802   1.575   7.999   2.614 -0.0194 -0.0024  0.1277
  249POPE   C2B 2803   1.288   7.709   2.850 -0.2816 -0.0420  0.1880
  249POPE   C3B 2804   0.843   7.579   2.884 -0.2869 -0.1182 -0.1320
  249POPE   C4B 2805   0.438   7.487   3.105  0.1076  0.1462  0.1609
  250POPE   NH3 2806   4.529   7.651   1.880 -0.0486  0.0928 -0.3054
  250POPE   PO4 2807   4.506   7.928   1.843  0.0284 -0.2778 -0.4352
  250POPE   GL1 2808   4.563   8.060   2.177  0.1522  0.2686  0.1119
  250POPE   GL2 2809   4.639   7.885   2.414  0.0030  0.0074 -0.1255
  250POPE   C1A 2810   4.266   8.229   2.488 -0.2377 -0.2195 -0.1796
  250POPE   D2A 2811   4.019   8.358   2.881  0.0281  0.0419 -0.0673
  250POPE   C3A 2812   3.887   8.123   3.226  0.1170  0.3194 -0.0561
  250POPE   C4A 2813   3.640   8.224   3.617 -0.0886  0.0072  0.3492
  250POPE   C1B 2814   4.686   7.730   2.857 -0.0763 -0.2554  0.2032
  250POPE   C2B 2815   4.546   7.398   3.101  0.1315  0.0295  0.3374
  250POPE   C3B 2816   4.137   7.198   3.196 -0.1270 -0.3637 -0.0645
  250POPE   C4B 2817   3.838   7.262   3.554 -0.1125 -0.0634  0.1233
  251POPE   NH3 2818   7.992   6.126   1.788 -0.4226  0.0865  0.1093
  251POPE   PO4 2819   8.109   6.422   1.685 -0.0422  0.0621 -0.1558
  251POPE   GL1 2820   7.987   6.660   2.092  0.0518 -0.1874 -0.1525
  251POPE   GL2 2821   8.135   6.829   2.374 -0.0318  0.2178 -0.2128
  251POPE   C1A 2822   7.738   6.558   2.476 -0.2226 -0.4490 -0.0935
  251POPE   D2A 2823   7.671   6.498   2.931  0.2664  0.1284  0.0409
  251POPE   C3A 2824   7.292   6.615   3.112  0.2821 -0.0052  0.0132
  251POPE   C4A 2825   6.975   6.700   3.414  0.1120  0.4414 -0.1957
  251POPE   C1B 2826   7.999   6.879   2.804  0.2497 -0.0773 -0.0825
  251POPE   C2B 2827   7.819   6.896   3.192  0.0024  0.1504 -0.1006
  251POPE   C3B 2828   7.898   6.681   3.603 -0.0869 -0.1575  0.3516
  251POPE   C4B 2829   8.125   6.379   3.897  0.0630 -0.1417  0.0694
  252POPE   NH3 2830   0.501   6.438   1.842  0.1562  0.2288  0.0473
  252POPE   PO4 2831   0.263   6.475   2.059  0.1352 -0.0047  0.0774
  252POPE   GL1 2832   0.029   6.450   2.386 -0.2132  0.0492  0.2953
  252POPE   GL2 2833  -0.194   6.249   2.379 -0.3385  0.1769 -0.0401
  252POPE   C1A 2834   0.082   6.415   2.872  0.1517 -0.3187  0.0583
  252POPE   D2A 2835  -0.129   6.448   3.226  0.3720 -0.0682  0.1535
  252POPE   C3A 2836  -0.451   6.767   3.268  0.1262  0.1133  0.1215
  252POPE   C4A 2837  -0.851   6.667   3.272 -0.0744  0.0276  0.3595
  252POPE   C1B 2838  -0.392   6.211   2.765  0.0345  0.3571  0.0815
  252POPE   C2B 2839  -0.638   6.191   3.236  0.4218  0.1857 -0.0267
  252POPE   C3B 2840  -0.526   6.319   3.662 -0.0583 -0.0376 -0.0924
  252POPE   C4B 2841  -0.303   6.626   3.891 -0.2166  0.0662  0.1495
  253POPE   NH3 2842   7.535   2.773   1.962  0.0765 -0.0661 -0.2792
  253POPE   PO4 2843   7.349   2.665   1.712 -0.0695 -0.2107  0.0700
  253POPE   GL1 2844   7.076   2.657   2.018  0.0748  0.2111  0.2412
  253POPE   GL2 2845   7.073   2.891   2.156 -0.2501 -0.3552 -0.0657
  253POPE   C1A 2846   6.720   2.499   2.222 -0.0626 -0.1138  0.1028
  253POPE   D2A 2847   6.339   2.559   2.467  0.1383 -0.2476  0.2003
  253POPE   C3A 2848   6.215   2.232   2.765 -0.0351 -0.2183  0.1620
  253POPE   C4A 2849   6.101   2.154   3.162 -0.0610  0.1433 -0.0292
  253POPE   C1B 2850   7.265   2.547   2.448  0.0226 -0.0261  0.0137
  253POPE   C2B 2851   7.142   2.306   2.832 -0.0734 -0.2754  0.0132
  253POPE   C3B 2852   7.086   2.195   3.293 -0.1459  0.3621 -0.0803
  253POPE   C4B 2853   7.046   2.059   3.666 -0.0532  0.0109 -0.0913
  254POPE   NH3 2854   7.408   3.674   1.818 -0.3102 -0.3869 -0.2284
  254POPE   PO4 2855   7.504   3.998   1.941 -0.1854  0.2197 -0.1624
  254POPE   GL1 2856   7.257   3.818   2.290 -0.0672  0.1043  0.1035
  254POPE   GL2 2857   7.117   3.512   2.209  0.0756  0.2351 -0.2504
  254POPE   C1A 2858   7.418   3.525   2.622  0.1256 -0.2193 -0.3751
  254POPE   D2A 2859   7.326   3.098   2.532 -0.0477 -0.0686 -0.1639
  254POPE   C3A 2860   7.410   2.788   2.848  0.2110  0.4056 -0.1223
  254POPE   C4A 2861   7.506   2.481   3.138  0.0570 -0.1040 -0.1828
  254POPE   C1B 2862   6.882   3.303   2.571  0.1014  0.0238 -0.1566
  254POPE   C2B 2863   6.594   3.223   2.966 -0.1129 -0.0313 -0.0527
  254POPE   C3B 2864   6.359   3.501   3.232 -0.0571  0.1427  0.1922
  254POPE   C4B 2865   6.101   3.930   3.226 -0.1808  0.2486  0.2261
  255POPE   NH3 2866   0.807   7.392   1.890  0.0736  0.0057 -0.3394
  255POPE   PO4 2867   0.623   7.627   1.688 -0.1794  0.1015  0.1648
  255POPE   GL1 2868   0.568   7.751   2.031 -0.1855 -0.0326 -0.1835
  255POPE   GL2 2869   0.856   7.822   2.208 -0.3553 -0.1341  0.0062
  255POPE   C1A 2870   0.284   7.952   2.332  0.0664  0.3955  0.1279
  255POPE   D2A 2871   0.133   8.211   2.660 -0.0213  0.1394 -0.0406
  255POPE   C3A 2872  -0.020   8.625   2.757 -0.1063 -0.1932 -0.5053
  255POPE   C4A 2873  -0.185   9.065   2.583 -0.0660  0.1204 -0.1061
  255POPE   C1B 2874   0.673   7.878   2.579  0.0798  0.2741 -0.3258
  255POPE   C2B 2875   0.479   8.051   2.994  0.2164  0.1908 -0.0293
  255POPE   C3B 2876   0.557   8.280   3.417  0.1942 -0.0910  0.1055
  255POPE   C4B 2877   0.388   8.437   3.778  0.2838 -0.1029 -0.0685
  256POPE   NH3 2878   3.144   7.403   1.350 -0.0668 -0.1575 -0.5279
  256POPE   PO4 2879   3.048   7.230   1.567  0.2273 -0.1674 -0.3069
  256POPE   GL1 2880   3.129   7.411   1.886 -0.1301 -0.1352  0.0623
  256POPE   GL2 2881   3.395   7.412   1.867 -0.1565  0.0899  0.2442
  256POPE   C1A 2882   3.070   7.231   2.341  0.2272  0.1892  0.1631
  256POPE   D2A 2883   3.182   7.286   2.727 -0.4474  0.0923  0.0816
  256POPE   C3A 2884   3.317   7.674   2.949 -0.3785 -0.0987 -0.2948
  256POPE   C4A 2885   3.414   8.056   3.152 -0.4020 -0.0486 -0.1328
  256POPE   C1B 2886   3.530   7.490   2.304  0.1888  0.1118  0.0853
  256POPE   C2B 2887   3.472   7.932   2.507 -0.1641  0.1403 -0.1896
  256POPE   C3B 2888   3.113   8.146   2.754  0.3555  0.1624  0.1126
  256POPE   C4B 2889   2.796   8.437   2.917 -0.0312  0.0343 -0.0923
  257POPE   NH3 2890   1.584   6.841   1.955  0.1388 -0.1399 -0.2867
  257POPE   PO4 2891   1.718   7.137   2.029 -0.0813 -0.2272 -0.4296
  257POPE   GL1 2892   1.745   7.355   2.306 -0.0027 -0.1182 -0.2942
  257POPE   GL2 2893   2.012   7.446   2.383 -0.0490 -0.1373 -0.0787
  257POPE   C1A 2894   1.666   7.338   2.787 -0.1855  0.3107  0.1236
  257POPE   D2A 2895   1.515   7.322   3.211  0.1296 -0.0824  0.0731
  257POPE   C3A 2896   1.697   7.323   3.625  0.3002  0.2261 -0.1572
  257POPE   C4A 2897   1.630   7.040   3.920 -0.0152 -0.0834 -0.0981
  257POPE   C1B 2898   2.453   7.418   2.401  0.1762  0.2449  0.2064
  257POPE   C2B 2899   2.684   7.095   2.623 -0.0168 -0.0621  0.1194
  257POPE   C3B 2900   2.937   6.847   2.947 -0.2364  0.0371  0.0064
  257POPE   C4B 2901   3.017   6.844   3.386  0.1151  0.0865  0.0543
  258POPE   NH3 2902   4.346   0.031   1.124 -0.1632 -0.0784 -0.0605
  258POPE   PO4 2903   4.556   0.091   1.354  0.0300 -0.1102 -0.0926
  258POPE   GL1 2904   4.417   0.367   1.625 -0.2112 -0.0178  0.0475
  258POPE   GL2 2905   4.128   0.452   1.578 -0.3350 -0.2707 -0.1788
  258POPE   C1A 2906   4.653   0.409   2.014  0.0943  0.1408 -0.0354
  258POPE   D2A 2907   4.896   0.628   2.323 -0.0840  0.1595  0.0738
  258POPE   C3A 2908   4.900   0.864   2.685 -0.0342 -0.2403  0.2316
  258POPE   C4A 2909   5.199   0.896   3.037 -0.0751  0.1960  0.1048
  258POPE   C1B 2910   4.143   0.354   1.997  0.1961 -0.1976  0.0139
  258POPE   C2B 2911   4.271   0.561   2.419 -0.1573  0.0361 -0.0349
  258POPE   C3B 2912   4.385   0.603   2.845 -0.0364 -0.0927  0.0655
  258POPE   C4B 2913   4.722   0.867   3.130  0.1062 -0.1576 -0.1145
  259POPE   NH3 2914   7.650   0.916   1.485  0.0569  0.3789 -0.0238
  259POPE   PO4 2915   7.895   0.819   1.719  0.2255  0.1477  0.4628
  259POPE   GL1 2916   7.770   0.698   2.091  0.0384 -0.1615  0.0826
  259POPE   GL2 2917   7.636   1.021   2.161 -0.0201 -0.2966 -0.2242
  259POPE   C1A 2918   7.376   0.651   2.367  0.1785  0.0089  0.0790
  259POPE   D2A 2919   7.330   0.787   2.815 -0.2411 -0.0180  0.3325
  259POPE   C3A 2920   6.997   0.889   3.101  0.0277 -0.1361 -0.0990
  259POPE   C4A 2921   6.659   0.968   3.367 -0.0547  0.1570 -0.0758
  259POPE   C1B 2922   7.682   1.150   2.627  0.1639 -0.0333  0.1300
  259POPE   C2B 2923   7.492   1.170   3.075  0.0410 -0.0076  0.1208
  259POPE   C3B 2924   7.185   1.353   3.275  0.1629 -0.1053 -0.0024
  259POPE   C4B 2925   6.791   1.606   3.405 -0.0281  0.2780 -0.1735
  260POPE   NH3 2926   6.644   3.841   1.477  0.0918 -0.0081  0.1347
  260POPE   PO4 2927   6.346   3.878   1.607 -0.3130  0.0450 -0.4180
  260POPE   GL1 2928   5.961   3.991   1.769  0.2827  0.3200  0.0009
  260POPE   GL2 2929   6.130   4.125   1.956 -0.2398  0.1090  0.1763
  260POPE   C1A 2930   5.772   3.962   2.183  0.0048 -0.2236 -0.1172
  260POPE   D2A 2931   5.619   4.219   2.477  0.2139  0.1174  0.1594
  260POPE   C3A 2932   5.255   4.487   2.428  0.0721  0.3662 -0.0060
  260POPE   C4A 2933   5.110   4.715   2.837  0.2836  0.3154 -0.0034
  260POPE   C1B 2934   6.225   3.860   2.311 -0.1259  0.0371 -0.0853
  260POPE   C2B 2935   5.933   3.822   2.692 -0.1727 -0.1931 -0.1762
  260POPE   C3B 2936   5.764   3.613   3.069  0.2619 -0.1722  0.3986
  260POPE   C4B 2937   5.600   3.842   3.436 -0.0179  0.1472  0.1251
  261POPE   NH3 2938   2.298   1.946   1.418 -0.2288  0.1936  0.0331
  261POPE   PO4 2939   2.163   1.828   1.677 -0.0035 -0.3217 -0.4218
  261POPE   GL1 2940   2.024   1.484   1.852  0.2822  0.0665  0.2146
  261POPE   GL2 2941   2.254   1.259   1.810  0.0274  0.2085  0.2167
  261POPE   C1A 2942   1.840   1.359   2.266  0.1425 -0.3547 -0.0411
  261POPE   D2A 2943   1.908   1.480   2.685 -0.1384 -0.0556  0.0206
  261POPE   C3A 2944   1.712   1.312   3.057 -0.0376 -0.0193  0.0535
  261POPE   C4A 2945   1.650   0.912   3.269 -0.1816 -0.2827 -0.1101
  261POPE   C1B 2946   2.357   1.113   2.260 -0.2123  0.0069  0.0905
  261POPE   C2B 2947   2.449   0.757   2.555  0.1267 -0.2610  0.1776
  261POPE   C3B 2948   2.570   0.280   2.792 -0.1158  0.2826  0.0063
  261POPE   C4B 2949   2.185   0.088   3.006  0.0270 -0.0766  0.0494
  262POPE   NH3 2950   6.961   0.879   1.002  0.0050  0.1906 -0.1480
  262POPE   PO4 2951   6.963   1.157   1.116 -0.2018 -0.0064 -0.2238
  262POPE   GL1 2952   7.160   1.014   1.424  0.0464  0.1354 -0.0553
  262POPE   GL2 2953   7.010   0.819   1.518  0.1513 -0.2047  0.0417
  262POPE   C1A 2954   7.222   1.169   1.877  0.1687  0.0949 -0.0568
  262POPE   D2A 2955   7.176   1.100   2.358 -0.1409 -0.2378  0.0078
  262POPE   C3A 2956   6.787   0.992   2.636  0.1326 -0.0759  0.0707
  262POPE   C4A 2957   6.362   1.146   2.699  0.1417  0.1367  0.0614
  262POPE   C1B 2958   6.755   0.875   1.908 -0.1391 -0.4084 -0.3108
  262POPE   C2B 2959   6.596   1.218   2.134  0.2252 -0.1817  0.0749
  262POPE   C3B 2960   6.177   1.379   2.258  0.0557 -0.1429 -0.0878
  262POPE   C4B 2961   5.887   1.388   2.611  0.1860 -0.0757 -0.0045
  263POPE   NH3 2962   8.625   5.259   1.694  0.1894 -0.4359  0.0497
  263POPE   PO4 2963   8.677   5.562   1.824 -0.1267  0.0970  0.1255
  263POPE   GL1 2964   8.594   5.702   2.144  0.1953 -0.2839  0.1312
  263POPE   GL2 2965   8.519   5.956   2.282  0.0508 -0.0087  0.0607
  263POPE   C1A 2966   8.889   5.613   2.520  0.0375  0.0611 -0.1951
  263POPE   D2A 2967   9.162   5.452   2.869  0.1719 -0.0643  0.0536
  263POPE   C3A 2968   9.107   5.301   3.301 -0.0013 -0.0209 -0.0253
  263POPE   C4A 2969   8.900   5.215   3.726  0.3740  0.0766 -0.1207
  263POPE   C1B 2970   8.361   5.902   2.742 -0.0644 -0.0326  0.2868
  263POPE   C2B 2971   8.230   5.829   3.187 -0.0676  0.0758 -0.2065
  263POPE   C3B 2972   8.257   5.834   3.620 -0.0213 -0.2077 -0.0364
  263POPE   C4B 2973   8.079   5.652   3.958  0.1676  0.1607 -0.0889
  264POPE   NH3 2974   0.310   4.885   1.471 -0.0465 -0.0400  0.0136
  264POPE   PO4 2975   0.163   4.693   1.741  0.0931  0.0535  0.1462
  264POPE   GL1 2976   0.193   4.612   2.142 -0.0098  0.1936  0.2144
  264POPE   GL2 2977   0.092   4.871   2.251  0.0289 -0.0188  0.0582
  264POPE   C1A 2978   0.478   4.518   2.494  0.0697  0.0902 -0.2513
  264POPE   D2A 2979   0.613   4.583   2.927  0.3572 -0.3372  0.1590
  264POPE   C3A 2980   0.334   4.718   3.311  0.0451  0.3852  0.0806
  264POPE   C4A 2981   0.099   4.788   3.619 -0.2373  0.0802  0.2301
  264POPE   C1B 2982   0.074   4.862   2.731 -0.3242  0.1560 -0.0693
  264POPE   C2B 2983  -0.090   4.615   3.067 -0.3096 -0.1254  0.4290
  264POPE   C3B 2984  -0.377   4.726   3.419  0.0814  0.0710  0.1163
  264POPE   C4B 2985  -0.419   4.680   3.877  0.0677 -0.0166  0.0367
  265POPE   NH3 2986   6.861   2.658   1.576  0.0118 -0.1944  0.1220
  265POPE   PO4 2987   6.814   2.922   1.687 -0.1276 -0.3694 -0.1267
  265POPE   GL1 2988   6.589   2.906   2.133 -0.0643 -0.5334 -0.1084
  265POPE   GL2 2989   6.469   3.140   2.244  0.0790  0.3917  0.1320
  265POPE   C1A 2990   6.780   2.829   2.592  0.3655 -0.1800  0.1999
  265POPE   D2A 2991   6.973   2.728   2.993  0.2459  0.2572  0.0781
  265POPE   C3A 2992   7.136   3.148   3.054 -0.1204 -0.0650 -0.1024
  265POPE   C4A 2993   6.922   3.599   3.023  0.0827  0.0977  0.0623
  265POPE   C1B 2994   6.295   2.973   2.659 -0.0400 -0.0110 -0.0721
  265POPE   C2B 2995   6.025   3.164   2.980  0.1064  0.1683  0.2710
  265POPE   C3B 2996   5.924   3.318   3.424 -0.1200 -0.5296  0.1674
  265POPE   C4B 2997   5.597   3.313   3.747  0.0295 -0.0287  0.0277
  266POPE   NH3 2998   3.345   2.675   1.509 -0.2396  0.2986  0.0173
  266POPE   PO4 2999   3.391   2.944   1.451 -0.0608  0.0855  0.0382
  266POPE   GL1 3000   3.315   3.086   1.848 -0.0274  0.3505  0.1361
  266POPE   GL2 3001   3.406   3.362   1.946  0.0652 -0.1722  0.3218
  266POPE   C1A 3002   2.932   3.200   2.148 -0.0394 -0.2843 -0.1084
  266POPE   D2A 3003   2.637   3.224   2.507 -0.0521 -0.2118  0.0530
  266POPE   C3A 3004   2.658   2.998   2.904  0.1031  0.3330  0.0266
  266POPE   C4A 3005   2.498   2.947   3.377 -0.0315 -0.0143  0.1793
  266POPE   C1B 3006   3.378   3.490   2.397 -0.4474 -0.1636 -0.1993
  266POPE   C2B 3007   3.292   3.389   2.827  0.0029  0.1452 -0.1012
  266POPE   C3B 3008   3.058   3.163   3.172  0.2126 -0.1770  0.0988
  266POPE   C4B 3009   2.931   2.796   3.437  0.3133  0.3274  0.0467
  267POPE   NH3 3010   4.232   3.507   1.437  0.2564  0.0855 -0.1781
  267POPE   PO4 3011   4.559   3.583   1.419 -0.0618  0.1183  0.4808
  267POPE   GL1 3012   4.573   3.471   1.827 -0.1962  0.2457  0.1226
  267POPE   GL2 3013   4.331   3.619   1.921 -0.2750 -0.2045 -0.2598
  267POPE   C1A 3014   4.370   3.142   2.121 -0.1534 -0.1228  0.0624
  267POPE   D2A 3015   4.341   3.212   2.637  0.1672 -0.3074  0.1412
  267POPE   C3A 3016   4.192   3.238   3.091 -0.0658 -0.0945 -0.1241
  267POPE   C4A 3017   4.268   3.546   3.506 -0.2117 -0.0297  0.1614
  267POPE   C1B 3018   4.261   3.639   2.380 -0.3149 -0.0030 -0.0273
  267POPE   C2B 3019   4.300   3.747   2.823 -0.1743  0.1383  0.0871
  267POPE   C3B 3020   4.098   3.908   3.222 -0.3712 -0.3146  0.0300
  267POPE   C4B 3021   3.948   4.047   3.650  0.0467  0.1569  0.1715
  268POPE   NH3 3022   7.345   8.482   1.108 -0.0779  0.3043 -0.0435
  268POPE   PO4 3023   7.142   8.736   1.020  0.0683  0.3348  0.2187
  268POPE   GL1 3024   6.946   8.689   1.388  0.3337 -0.1975 -0.1247
  268POPE   GL2 3025   6.815   9.005   1.385  0.1235  0.0275  0.1325
  268POPE   C1A 3026   7.045   8.728   1.855 -0.1049 -0.1479  0.2894
  268POPE   D2A 3027   7.186   8.396   2.144 -0.0776  0.2607 -0.4294
  268POPE   C3A 3028   7.165   8.457   2.563 -0.0911  0.0815  0.1622
  268POPE   C4A 3029   7.271   8.459   3.017  0.1002  0.3300  0.0471
  268POPE   C1B 3030   6.510   8.796   1.742 -0.2064 -0.2387 -0.3022
  268POPE   C2B 3031   6.505   8.814   2.223 -0.1873 -0.1405 -0.0301
  268POPE   C3B 3032   6.439   9.056   2.659 -0.3620  0.1687  0.1132
  268POPE   C4B 3033   6.216   9.283   3.040 -0.2180 -0.2843  0.2918
  269W        W 3034   3.206   4.136   0.745  0.5860 -0.1609 -0.2281
  270W        W 3035   4.073   6.248   6.616  0.1252  0.0654  0.0329
  271W        W 3036   8.999   7.474   1.074  0.3172  0.0393  0.0370
  272W        W 3037   4.730   5.998   5.132  0.0938 -0.0120  0.2617
  273W        W 3038   7.021   7.135   5.884 -0.1827 -0.0173 -0.0422
  274W        W 3039   0.509   5.393   0.615 -0.3761 -0.2284  0.1007
  275W        W 3040   3.254   8.823   0.167 -0.0495  0.1221 -0.0914
  276W        W 3041   6.838   5.719   6.414  0.2907  0.1376  0.0002
  277W        W 3042   2.157   8.140   1.744 -0.1173  0.4229 -0.3198
  278W        W 3043   2.557   7.965   0.535  0.2001 -0.1240  0.0051
  279W        W 3044   7.736   6.759   5.906  0.0087 -0.1817  0.2015
  280W        W 3045   6.994   4.593   6.327 -0.1285  0.1132 -0.0264
  281W        W 3046   8.261   6.740   7.033 -0.0711  0.4394  0.0834
  282W        W 3047   4.446   6.620   6.054  0.1446 -0.1099 -0.2982
  283W        W 3048   6.586   6.198   0.504 -0.1497 -0.0875  0.4104
  284W        W 3049   7.119   7.598   6.782  0.1031  0.1681  0.1932
  285W        W 3050   7.110   5.335   5.884 -0.1982  0.1018  0.2990
  286W        W 3051   8.410   0.033   6.993  0.1506 -0.3321 -0.0916
  287W        W 3052   6.498   7.965   5.870  0.1154  0.2571  0.0741
  288W        W 3053   4.351   2.228   1.868 -0.0175  0.0426 -0.1136
  289W        W 3054   2.532   1.889   0.994  0.1155  0.2803 -0.2625
  290W        W 3055   7.619   4.420   5.795  0.1322 -0.2047  0.2088
  291W        W 3056   6.524   8.656   1.182  0.0061  0.0477 -0.0743
  292W        W 3057   8.353   4.474   6.072  0.0343  0.1470 -0.1687
  293W        W 3058   7.474   1.780   6.631  0.0706  0.1366 -0.1098
  294W        W 3059   4.351   2.687   5.688  0.2785 -0.0374  0.0796
  295W        W 3060   2.202   4.973   1.402  0.0545 -0.0039  0.0947
  296W        W 3061   5.713   4.506   6.261  0.1910  0.0719 -0.3303
  297W        W 3062   0.944   6.296   1.354 -0.1113  0.3596  0.0801
  298W        W 3063   7.740   8.843   5.900 -0.0599  0.1733 -0.0932
  299W        W 3064   1.331   0.617   6.541 -0.4478 -0.2174  0.0055
  300W        W 3065   2.443   1.280   0.882 -0.0560 -0.0293  0.1329
  301W        W 3066   3.430   1.371   0.889 -0.1616  0.2473  0.0020
  302W        W 3067   4.029   4.091   1.018  0.0710 -0.1545 -0.0305
  303W        W 3068   1.150   0.297   0.238 -0.1981  0.1093  0.1105
  304W        W 3069   8.392   5.492   6.524  0.0985 -0.2055  0.1416
  305W        W 3070   4.574   9.049   6.007  0.0076 -0.0313 -0.0724
  306W        W 3071   1.611   3.633   0.181  0.1447  0.2082  0.1670
  307W        W 3072   7.322   0.602   6.687 -0.1000 -0.0285 -0.0125
  308W        W 3073   2.970   1.946   6.781  0.1161 -0.1048 -0.0887
  309W        W 3074   4.560   7.415   1.483 -0.1440  0.2235  0.0404
  310W        W 3075   4.887   0.151   0.303 -0.1651 -0.4442 -0.0716
  311W        W 3076   3.983   2.279   6.878 -0.2912 -0.2777 -0.3665
  312W        W 3077   8.977   3.461   6.826  0.1807 -0.1719 -0.7739
  313W        W 3078   6.381   5.306   0.481  0.4933  0.0371 -0.0484
  314W        W 3079   8.152   5.701   1.950 -0.4122  0.1333  0.0984
  315W        W 3080   0.104   7.905   5.870 -0.0401  0.0009  0.0493
  316W        W 3081   1.649   0.004   0.319 -0.0700  0.0116  0.0040
  317W        W 3082   2.791   5.481   6.610  0.3770  0.3474  0.0371
  318W        W 3083   0.376   1.715   6.199  0.2926 -0.0751  0.1868
  319W        W 3084   1.047   2.240   1.496 -0.1209  0.2269  0.2308
  320W        W 3085   8.718   1.918   1.073 -0.3399  0.1721 -0.2934
  321W        W 3086   3.491   6.755   6.282 -0.1010 -0.0306  0.1382
  322W        W 3087   8.022   1.127   0.600  0.1589  0.1977  0.0633
  323W        W 3088   4.880   1.060   1.394 -0.2858  0.0600  0.1769
  324W        W 3089   3.716   1.226   0.013  0.2406  0.3492 -0.0162
  325W        W 3090   3.271   2.709   0.933 -0.2483  0.3737 -0.1611
  326W        W 3091   5.866   8.376   0.047  0.1135  0.0467  0.0536
  327W        W 3092   0.241   6.323   0.451  0.0001  0.1784 -0.3428
  328W        W 3093   5.687   0.149   6.896  0.0370 -0.2715  0.0218
  329W        W 3094   2.008   5.155   0.971 -0.0759 -0.1883 -0.3765
  330W        W 3095   8.706   4.001   6.396 -0.1793 -0.0334 -0.1541
  331W        W 3096   4.786   4.319   1.998 -0.3089  0.0630 -0.1557
  332W        W 3097   3.845   0.356   6.649 -0.1045  0.2434  0.1490
  333W        W 3098   3.348   1.628   7.007 -0.3491 -0.2777 -0.0100
  334W        W 3099   2.586   8.906   6.436  0.0994  0.1757 -0.1047
  335W        W 3100   7.273   6.541   6.675 -0.1375  0.0171  0.0015
  336W        W 3101   3.870   6.900   6.522 -0.6062  0.3256  0.1449
  337W        W 3102   1.504   6.539   0.253  0.4334  0.3333 -0.0121
  338W        W 3103   2.451   1.488   6.197  0.0236 -0.0297  0.1665
  339W        W 3104   1.223   8.172   7.011  0.2612 -0.0097 -0.1127
  340W        W 3105   1.228   7.818   0.401  0.0445 -0.3139 -0.1258
  341W        W 3106   0.322   3.819   2.081 -0.2593 -0.0806  0.0719
  342W        W 3107   3.314   2.874   6.411  0.1283 -0.1418  0.1846
  343W        W 3108   0.189   3.985   1.591  0.0832 -0.0434  0.1208
  344W        W 3109   2.975   4.437   0.382 -0.1898  0.1573 -0.1292
  345W        W 3110   4.373   0.446   6.816 -0.1700  0.1308  0.1403
  346W        W 3111   1.479   7.396   0.195  0.0961  0.1608 -0.3551
  347W        W 3112   8.793   4.815   1.544 -0.2282 -0.3249 -0.1873
  348W        W 3113   4.591   7.948   6.403  0.1946  0.0672 -0.1377
  349W        W 3114   2.696   4.452   6.451 -0.1880 -0.0395 -0.0533
  350W        W 3115   1.676   0.881   6.244 -0.0105 -0.1721 -0.2436
  351W        W 3116   3.228   2.525   6.760 -0.1044  0.4808 -0.1085
  352W        W 3117   8.890   0.651   0.758  0.2636  0.1873  0.1059
  353W        W 3118   4.838   5.441   5.522 -0.2305  0.0855 -0.1083
  354W        W 3119   5.999   8.628   5.165  0.0356 -0.1606 -0.3895
  355W        W 3120   5.908   6.200   6.534 -0.1504  0.0494  0.0049
  356W        W 3121   0.237   8.284   6.600  0.1547 -0.2987 -0.0972
  357W        W 3122   8.081   3.045   6.778 -0.0228  0.0968 -0.0161
  358W        W 3123   2.689   4.997   6.544  0.0818  0.0497  0.7573
  359W        W 3124   2.876   2.663   0.476  0.1326  0.0240 -0.1622
  360W        W 3125   3.134   5.843   6.608  0.0449  0.0650 -0.1688
  361W        W 3126   1.746   0.843   5.708 -0.2651  0.3109 -0.0304
  362W        W 3127   4.089   6.639   6.935  0.1343  0.0286 -0.5249
  363W        W 3128   4.507   0.683   6.296  0.0860 -0.0930 -0.1292
  364W        W 3129   3.686   5.890   6.031  0.2153 -0.1748 -0.3082
  365W        W 3130   1.064   0.335   5.721  0.2797 -0.1623  0.2197
  366W        W 3131   2.143   0.684   7.044 -0.0698  0.2591 -0.1473
  367W        W 3132   2.770   3.830   0.931 -0.0412 -0.1290  0.0679
  368W        W 3133   1.751   1.082   1.446 -0.0549  0.0804  0.0288
  369W        W 3134   5.032   3.876   5.141 -0.2744  0.0357  0.0007
  370W        W 3135   2.021   2.941   0.029 -0.0520 -0.0382  0.2576
  371W        W 3136   3.415   6.601   0.753 -0.0330 -0.2879  0.3760
  372W        W 3137   2.232   3.730   0.695  0.1270  0.1162 -0.3515
  373W        W 3138   5.583   6.269   6.920  0.1332 -0.0309  0.3230
  374W        W 3139   6.128   5.985   6.933  0.1943  0.2603 -0.1343
  375W        W 3140   0.626   6.762   0.611  0.2258  0.0035 -0.1337
  376W        W 3141   0.664   2.690   6.351 -0.0305 -0.0559 -0.2876
  377W        W 3142   2.689   3.789   0.045 -0.2224 -0.2321 -0.2452
  378W        W 3143   8.843   0.104   6.182 -0.1591  0.0446  0.2180
  379W        W 3144   8.048   2.301   2.325  0.1524  0.2790  0.1069
  380W        W 3145   0.094   8.935   6.835  0.1474  0.2365 -0.2058
  381W        W 3146   8.621   3.515   0.124  0.0677 -0.0183 -0.0211
  382W        W 3147   2.937   2.149   6.336  0.1630 -0.1115  0.0480
  383W        W 3148   2.499   1.112   5.750  0.2268 -0.0992 -0.0918
  384W        W 3149   2.290   0.387   0.886 -0.1056 -0.2140 -0.0056
  385W        W 3150   4.527   1.136   4.960  0.2224 -0.1224  0.0932
  386W        W 3151   9.064   8.702   6.430 -0.4345 -0.0724  0.0793
  387W        W 3152   1.177   6.090   6.541  0.0083 -0.1905  0.0440
  388W        W 3153   3.780   5.660   6.980  0.0823 -0.0141 -0.1871
  389W        W 3154   8.975   0.693   6.495 -0.2749 -0.0903  0.0510
  390W        W 3155   7.850   4.016   2.263  0.2268 -0.0913 -0.1425
  391W        W 3156   3.981   8.201   0.426  0.0411  0.0491 -0.1259
  392W        W 3157   7.497   6.463   0.967  0.3215  0.0558  0.0869
  393W        W 3158   7.899   7.696   5.327  0.0615  0.0556 -0.2425
  394W        W 3159   8.845   4.112   0.309 -0.1097 -0.0797  0.1646
  395W        W 3160   0.952   1.849   6.158  0.3665  0.0722 -0.2398
  396W        W 3161   6.168   8.641   4.702  0.3467 -0.1296 -0.0302
  397W        W 3162   8.971   6.624   0.679 -0.2486  0.1847 -0.0822
  398W        W 3163   5.884   0.013   1.070  0.1194 -0.0134 -0.1018
  399W        W 3164   4.322   6.708   6.525 -0.2573 -0.0268  0.3202
  400W        W 3165   7.647   1.309   0.353  0.1945  0.1160 -0.2854
  401W        W 3166   6.469   5.112   6.636  0.1213  0.0053  0.3076
  402W        W 3167   5.661   2.578   1.984 -0.0322 -0.1807  0.1277
  403W        W 3168   5.015   7.209   1.291 -0.1553 -0.0816  0.0253
  404W        W 3169   1.974   6.418   0.481  0.1165 -0.0514 -0.0933
  405W        W 3170   3.893   0.430   0.550  0.1554  0.0368  0.1369
  406W        W 3171   8.040   0.295   0.229 -0.1907  0.1715 -0.0493
  407W        W 3172   0.778   1.342   0.918 -0.1569  0.4622  0.0842
  408W        W 3173   4.058   9.040   0.514  0.0189  0.0211 -0.0507
  409W        W 3174   8.469   2.462   0.537 -0.3974 -0.2017  0.0083
  410W        W 3175   8.409   7.524   6.612 -0.1646  0.1207  0.3824
  411W        W 3176   7.803   7.079   5.517 -0.0694 -0.3641 -0.0303
  412W        W 3177   3.924   7.747   0.721  0.2894  0.1549  0.2819
  413W        W 3178   8.100   2.804   0.214  0.1737  0.2078 -0.0804
  414W        W 3179   7.027   8.206   6.377 -0.3607 -0.2443 -0.1050
  415W        W 3180   4.661   4.488   0.472 -0.1805  0.3226  0.0212
  416W        W 3181   0.071   2.050   6.564 -0.0318 -0.0571 -0.1437
  417W        W 3182   7.840   4.631   1.480  0.0053 -0.0929 -0.2459
  418W        W 3183   7.970   8.461   0.404  0.0422 -0.1893 -0.3533
  419W        W 3184   0.694   9.138   0.434 -0.0318 -0.0555 -0.1664
  420W        W 3185   8.641   3.141   1.545  0.0811  0.3686  0.1778
  421W        W 3186   1.143   8.353   5.204  0.0511  0.0384 -0.1485
  422W        W 3187   3.373   1.026   1.241 -0.1651 -0.0077 -0.1301
  423W        W 3188   7.319   0.452   0.746  0.3057 -0.0087  0.2597
  424W        W 3189   2.392   8.782   5.767 -0.0075 -0.0029 -0.1718
  425W        W 3190   8.356   2.253   0.968 -0.2190  0.2595 -0.0678
  426W        W 3191   6.868   6.982   0.947  0.1820 -0.2622  0.2668
  427W        W 3192   4.058   6.903   0.714 -0.0934 -0.2279  0.0916
  428W        W 3193   2.444   7.347   1.481  0.0496  0.3100  0.1575
  429W        W 3194   0.561   3.733   0.220  0.3305 -0.0111 -0.2227
  430W        W 3195   3.743   1.658   5.793 -0.0187 -0.2024 -0.4867
  431W        W 3196   7.276   7.729   5.047  0.2173 -0.0062  0.1829
  432W        W 3197   2.939   0.403   0.849  0.1052  0.2364 -0.1589
  433W        W 3198   6.587   6.277   5.878 -0.6180  0.0846 -0.1487
  434W        W 3199   2.864   4.912   0.224 -0.0278 -0.1316  0.2064
  435W        W 3200   0.249   2.136   2.088  0.0207 -0.1251 -0.1753
  436W        W 3201   2.658   5.809   1.468 -0.0139 -0.1429 -0.0151
  437W        W 3202   6.367   3.658   7.052 -0.2025  0.2424  0.2953
  438W        W 3203   3.086   1.766   6.001 -0.1753 -0.1107 -0.0678
  439W        W 3204   6.438   8.854   0.534 -0.4975 -0.1393 -0.0259
  440W        W 3205   8.687   0.481   5.874 -0.2006 -0.3510  0.3185
  441W        W 3206   3.595   3.785   0.750 -0.1446 -0.2073 -0.2404
  442W        W 3207   3.185   6.015   0.928  0.1455 -0.1088  0.0908
  443W        W 3208   3.132   2.235   5.881 -0.1130  0.0092  0.0253
  444W        W 3209   6.346   6.031   0.940  0.1967 -0.0854 -0.0815
  445W        W 3210   5.615   1.269   5.193  0.2543  0.0971  0.2429
  446W        W 3211   6.522   5.667   1.261  0.0908  0.0220  0.2176
  447W        W 3212   3.276   0.536   5.929 -0.2793  0.0903  0.0500
  448W        W 3213   6.860   8.357   0.914  0.0032  0.0836 -0.0421
  449W        W 3214   8.050   1.345   5.632  0.0278 -0.1142  0.0238
  450W        W 3215   4.302   5.974   0.013  0.1226  0.1963 -0.1745
  451W        W 3216   7.671   8.670   6.859 -0.1253 -0.0826 -0.2537
  452W        W 3217   5.634   4.732   0.825 -0.2137 -0.1570  0.1855
  453W        W 3218   3.279   7.705   6.790 -0.3901 -0.4551 -0.2565
  454W        W 3219   6.672   1.264   6.276 -0.2803 -0.0217  0.0303
  455W        W 3220   4.740   5.200   6.826 -0.3530 -0.2367  0.0623
  456W        W 3221   6.407   0.016   0.983  0.2167 -0.0596  0.1379
  457W        W 3222   0.416   0.793   0.243 -0.3726  0.1939  0.3617
  458W        W 3223   0.793   3.645   0.689 -0.3531 -0.2626  0.0309
  459W        W 3224   5.566   8.213   0.536  0.2173  0.1140 -0.1448
  460W        W 3225   1.679   4.685   1.595 -0.3212  0.4269  0.3148
  461W        W 3226   9.003   3.084   6.220  0.0140  0.4386 -0.2609
  462W        W 3227   8.006   3.293   5.249  0.0490  0.2403  0.0590
  463W        W 3228   5.345   8.700   4.978 -0.0291  0.1647 -0.0700
  464W        W 3229   6.630   2.229   6.962  0.1091  0.2897  0.0258
  465W        W 3230   4.861   6.994   6.202  0.0676  0.0838  0.3017
  466W        W 3231   8.626   8.471   6.344 -0.3663  0.0974 -0.0008
  467W        W 3232   8.378   9.005   5.346 -0.1527 -0.0062  0.0890
  468W        W 3233   4.595   1.290   6.098 -0.2383  0.1383  0.3399
  469W        W 3234   6.759   3.813   5.732  0.2786  0.0682 -0.0301
  470W        W 3235   4.985   6.165   6.955 -0.0954 -0.2431 -0.3220
  471W        W 3236   6.782   0.618   5.490 -0.0478  0.0139  0.2897
  472W        W 3237   0.060   0.095   1.129  0.0622  0.3118 -0.0186
  473W        W 3238   7.025   5.112   6.306  0.1169 -0.2402  0.3694
  474W        W 3239   1.314   0.078   5.380  0.3311  0.0720 -0.1882
  475W        W 3240   3.819   2.015   0.269  0.2978 -0.1104 -0.0808
  476W        W 3241   2.748   5.938   5.967 -0.2614  0.1112  0.0849
  477W        W 3242   4.738   7.828   7.023 -0.1125  0.0815 -0.0132
  478W        W 3243   1.217   5.308   0.466  0.0165  0.0325 -0.1893
  479W        W 3244   2.427   6.829   2.266  0.0164  0.4141  0.1460
  480W        W 3245   8.844   0.532   1.311  0.1217 -0.0484 -0.2291
  481W        W 3246   1.719   3.704   6.330 -0.3963  0.1948 -0.2112
  482W        W 3247   0.833   6.344   6.852  0.0570  0.2027  0.3707
  483W        W 3248   4.129   3.562   0.261  0.1815  0.1537  0.1063
  484W        W 3249   5.804   6.466   0.870 -0.0775  0.4067 -0.2277
  485W        W 3250   0.914   4.175   1.329  0.2359  0.1401 -0.0919
  486W        W 3251   1.861   5.958   0.384 -0.1182  0.0748  0.1947
  487W        W 3252   7.822   1.499   5.186 -0.0477 -0.2163 -0.2349
  488W        W 3253   8.185   7.532   1.598 -0.1583  0.2851 -0.1083
  489W        W 3254   0.630   2.122   1.135  0.0539  0.0132  0.3908
  490W        W 3255   8.502   1.823   5.003  0.0816  0.0368  0.2397
  491W        W 3256   3.185   6.054   6.132  0.0408 -0.0960  0.0146
  492W        W 3257   3.480   8.157   6.673 -0.0030 -0.0029  0.0857
  493W        W 3258   7.245   8.595   6.179 -0.0934 -0.2927  0.2416
  494W        W 3259   7.946   5.225   0.797 -0.0431  0.0382 -0.1768
  495W        W 3260   7.966   3.414   0.566  0.1924  0.0452 -0.1476
  496W        W 3261   7.253   3.695   6.110  0.2141 -0.2226 -0.0609
  497W        W 3262   2.840   3.675   5.890  0.0369  0.1237  0.2133
  498W        W 3263   4.218   6.430   0.321  0.2868  0.2593  0.1664
  499W        W 3264   3.662   3.356   1.546 -0.1533 -0.1526 -0.1550
  500W        W 3265   0.507   8.865   1.202  0.0785 -0.1083  0.1188
  501W        W 3266   5.815   6.237   1.619 -0.1823  0.1021 -0.0384
  502W        W 3267   4.763   4.402   7.030  0.1643 -0.0583  0.0511
  503W        W 3268   2.133   8.076   6.329  0.0868  0.2580 -0.0159
  504W        W 3269   2.709   5.148   6.105 -0.1234  0.3402  0.1346
  505W        W 3270   8.233   6.917   0.843  0.0204 -0.3134  0.1969
  506W        W 3271   8.500   1.627   6.401 -0.1496 -0.0691  0.1972
  507W        W 3272   1.713   1.354   5.835 -0.1568 -0.1945 -0.2603
  508W        W 3273   6.468   6.495   6.753 -0.1146  0.1467 -0.0565
  509W        W 3274   5.152   7.653   6.834 -0.2293  0.1482 -0.2943
  510W        W 3275   1.543   2.864   6.661 -0.0459 -0.1068 -0.1406
  511W        W 3276   1.847   8.198   1.360  0.3838  0.1000  0.2728
  512W        W 3277   5.753   7.342   6.178  0.1075 -0.2452  0.2414
  513W        W 3278   2.594   0.828   5.208  0.1891 -0.0115 -0.4457
  514W        W 3279   6.948   4.867   0.025  0.1893  0.1130  0.1464
  515W        W 3280   3.068   3.891   0.361  0.2221 -0.1479 -0.1225
  516W        W 3281   0.299   0.722   1.921  0.1887  0.1253 -0.2362
  517W        W 3282   1.708   9.127   1.392  0.0220  0.0165  0.1860
  518W        W 3283   4.880   4.787   1.124  0.2394  0.1311  0.4124
  519W        W 3284   6.151   3.125   6.180  0.0133 -0.1892 -0.1752
  520W        W 3285   7.417   9.017   6.445 -0.3519  0.0091  0.1209
  521W        W 3286   9.035   5.663   6.863  0.2706  0.0971  0.3484
  522W        W 3287   5.605   3.657   6.779  0.1041  0.0742  0.0952
  523W        W 3288   2.878   5.024   0.758  0.1741  0.4169 -0.1455
  524W        W 3289   8.796   4.335   0.773 -0.2595 -0.0204  0.1420
  525W        W 3290   0.615   0.726   0.899 -0.1121 -0.0716 -0.0730
  526W        W 3291   1.372   7.473   0.764 -0.1483 -0.0860  0.0466
  527W        W 3292   2.418   2.607   0.050 -0.0365 -0.1231  0.1005
  528W        W 3293   4.627   4.711   6.601  0.1436  0.0557 -0.3788
  529W        W 3294   6.980   1.135   6.983  0.0385 -0.0160 -0.1105
  530W        W 3295   5.175   3.336   0.841 -0.2326  0.1589  0.3582
  531W        W 3296   0.879   2.360   6.048  0.1360  0.2359 -0.4613
  532W        W 3297   2.740   6.210   0.718 -0.1924 -0.2116 -0.1444
  533W        W 3298   6.772   7.910   0.656 -0.2795 -0.1938  0.1178
  534W        W 3299   8.514   6.352   0.140  0.3011  0.4353 -0.1579
  535W        W 3300   2.495   8.629   7.015  0.0204 -0.1650  0.1431
  536W        W 3301   2.590   7.456   0.639 -0.0392 -0.1143  0.0762
  537W        W 3302   3.049   1.701   0.708  0.1710 -0.3908  0.1489
  538W        W 3303   0.727   6.808   6.727  0.2077 -0.0767  0.1227
  539W        W 3304   5.034   0.024   1.403  0.0244 -0.0032 -0.0870
  540W        W 3305   6.930   3.915   7.031  0.1468 -0.0333 -0.1759
  541W        W 3306   6.439   6.008   6.598  0.0772 -0.3571  0.2828
  542W        W 3307   3.293   4.724   0.675  0.2519  0.0969  0.0074
  543W        W 3308   5.400   4.945   7.058  0.0784 -0.0056  0.0552
  544W        W 3309   5.437   5.302   6.216  0.0413 -0.0727 -0.0266
  545W        W 3310   8.138   5.564   6.037 -0.0706 -0.1110  0.0939
  546W        W 3311   4.904   1.100   0.267  0.0856 -0.1731  0.3941
  547W        W 3312   8.715   7.841   5.978  0.2873 -0.2823 -0.0188
  548W        W 3313   8.241   2.798   6.015  0.0201  0.1077  0.2047
  549W        W 3314   7.036   4.585   1.477 -0.2751  0.1290 -0.0992
  550W        W 3315   4.580   5.304   0.202  0.2210  0.0722  0.0387
  551W        W 3316   1.712   4.840   6.373 -0.0064  0.0157 -0.3399
  552W        W 3317   1.409   8.232   5.605 -0.1210 -0.0299 -0.1273
  553W        W 3318   8.879   7.598   6.822 -0.1231  0.0732 -0.1240
  554W        W 3319   5.837   8.337   6.650 -0.0478 -0.2223  0.2277
  555W        W 3320   2.586   1.139   6.551 -0.3016  0.1707  0.0872
  556W        W 3321   8.267   4.032   1.532 -0.2012 -0.0427  0.2146
  557W        W 3322   8.678   4.480   6.604 -0.2701  0.1779  0.1586
  558W        W 3323   0.671   2.964   6.919 -0.0323 -0.0142  0.0819
  559W        W 3324   3.657   8.961   0.819  0.2119 -0.1350  0.0656
  560W        W 3325   7.800   5.416   6.528 -0.3846  0.0034  0.1365
  561W        W 3326   7.085   1.893   0.557  0.0823 -0.1055 -0.3429
  562W        W 3327   4.961   1.294   6.840 -0.0933 -0.0104 -0.1701
  563W        W 3328   1.886   4.930   5.896  0.4311  0.2187 -0.0061
  564W        W 3329   3.682   6.970   0.412  0.2473  0.1570  0.0038
  565W        W 3330   8.353   2.985   0.644  0.2591 -0.0240 -0.4458
  566W        W 3331   1.195   1.148   0.235 -0.2629 -0.1990 -0.1810
  567W        W 3332   0.239   8.459   6.108  0.0655 -0.1119 -0.0853
  568W        W 3333   7.057   2.405   0.666 -0.3481 -0.0259 -0.0570
  569W        W 3334   8.748   4.789   2.070 -0.3680 -0.2311  0.3455
  570W        W 3335   3.784   6.808   1.116  0.0562  0.0338 -0.0945
  571W        W 3336   5.854   2.322   0.284  0.0097  0.0156 -0.0555
  572W        W 3337   4.340   5.504   6.864 -0.1375 -0.3197 -0.4045
  573W        W 3338   1.516   3.785   1.123 -0.1035  0.1150  0.0574
  574W        W 3339   4.659   2.928   0.698  0.1447 -0.3242  0.0355
  575W        W 3340   7.404   4.913   2.211  0.1393 -0.0009  0.1945
  576W        W 3341   5.351   0.927   6.653  0.0745 -0.0142  0.2228
  577W        W 3342   4.163   0.306   6.234  0.0667  0.1774 -0.0280
  578W        W 3343   1.540   5.863   6.155 -0.4105  0.1155 -0.0290
  579W        W 3344   7.696   8.569   6.408  0.0410 -0.1415 -0.0111
  580W        W 3345   4.521   2.719   5.244  0.0831 -0.2640 -0.1071
  581W        W 3346   7.332   3.510   6.869  0.3131  0.1453  0.0486
  582W        W 3347   4.285   5.029   7.006  0.0132 -0.2852  0.1990
  583W        W 3348   2.035   4.451   5.826 -0.1781  0.0743 -0.0876
  584W        W 3349   2.761   5.917   6.964 -0.2128  0.1648  0.1920
  585W        W 3350   0.532   8.494   5.438 -0.3237 -0.2056  0.0456
  586W        W 3351   8.927   4.489   0.011  0.1990 -0.2285  0.1782
  587W        W 3352   2.266   7.036   1.885 -0.1464 -0.2363  0.2637
  588W        W 3353   8.601   4.629   0.360 -0.0495  0.2346 -0.1542
  589W        W 3354   7.202   8.810   5.426  0.0793  0.3158  0.0553
  590W        W 3355   5.963   0.522   6.489 -0.0777 -0.0295 -0.0754
  591W        W 3356   7.411   7.331   1.152  0.1090  0.2438 -0.3578
  592W        W 3357   6.101   4.403   0.581 -0.0121 -0.0145 -0.2546
  593W        W 3358   5.055   0.142   0.910  0.1343 -0.1905  0.0101
  594W        W 3359   8.085   2.048   1.479 -0.1420 -0.2503 -0.0424
  595W        W 3360   4.460   7.289   0.552 -0.1978  0.1189  0.2908
  596W        W 3361   4.970   3.208   6.349 -0.0832  0.0683  0.1095
  597W        W 3362   1.701   3.279   1.105  0.0882 -0.0336 -0.0373
  598W        W 3363   3.117   5.749   1.898  0.0895  0.1618  0.2145
  599W        W 3364   0.115   0.925   0.554  0.0541  0.2257  0.1185
  600W        W 3365   2.978   0.620   0.361  0.0908 -0.1949  0.3066
  601W        W 3366   0.591   1.881   0.272  0.0151 -0.2512 -0.0987
  602W        W 3367   4.408   7.783   0.416  0.3721  0.0304  0.2022
  603W        W 3368   7.032   0.388   5.925 -0.1356 -0.2323  0.0275
  604W        W 3369   8.834   8.223   6.764  0.0983  0.0189  0.1385
  605W        W 3370   1.172   3.161   1.239 -0.0874  0.1833 -0.0118
  606W        W 3371   4.125   2.285   0.853  0.0233  0.0028 -0.1800
  607W        W 3372   0.912   1.526   0.471  0.4284  0.1277  0.1104
  608W        W 3373   0.044   5.215   6.940  0.2199  0.0473 -0.0414
  609W        W 3374   2.203   1.488   5.710 -0.0645  0.0544 -0.0317
  610W        W 3375   6.259   1.633   5.750 -0.0734  0.1123  0.0043
  611W        W 3376   2.210   8.499   6.571  0.2177  0.0845 -0.1279
  612W        W 3377   5.565   4.451   6.795 -0.3443 -0.1780 -0.2032
  613W        W 3378   2.747   2.969   0.015  0.2891 -0.0850 -0.2242
  614W        W 3379   5.520   3.034   6.529 -0.1912 -0.2096 -0.2169
  615W        W 3380   3.537   2.364   0.632 -0.0334 -0.1430  0.0945
  616W        W 3381   7.202   3.555   5.540  0.1944 -0.4198  0.0321
  617W        W 3382   3.816   7.664   6.741  0.2723  0.0554  0.1220
  618W        W 3383   0.513   0.120   6.671  0.0143 -0.0061  0.4496
  619W        W 3384   6.466   3.077   0.945  0.1774 -0.1466 -0.0341
  620W        W 3385   0.369   3.296   0.106  0.0695  0.0278  0.0452
  621W        W 3386   5.612   4.078   0.103  0.2542  0.1437 -0.3189
  622W        W 3387   9.127   5.544   0.289 -0.0661 -0.0017  0.0688
  623W        W 3388   4.943   4.419   5.989 -0.0301  0.0395  0.3024
  624W        W 3389   4.364   0.462   0.406  0.0662 -0.0360  0.0485
  625W        W 3390   3.451   4.245   6.823  0.1676 -0.2395 -0.1437
  626W        W 3391   7.869   5.831   0.237 -0.0117  0.0251 -0.0288
  627W        W 3392   2.160   7.717   0.817 -0.2111  0.2291 -0.0910
  628W        W 3393   2.841   1.993   5.581 -0.0012 -0.0517 -0.2700
  629W        W 3394   1.304   2.323   6.316  0.2260  0.1265  0.1656
  630W        W 3395   6.897   4.601   2.008 -0.0161  0.1397 -0.0736
  631W        W 3396   2.996   3.130   6.646  0.0225 -0.2226 -0.2318
  632W        W 3397   5.193   0.048   6.598 -0.1202  0.1265  0.0472
  633W        W 3398   9.011   2.703   0.411 -0.2031  0.1705  0.0919
  634W        W 3399   3.227   6.240   0.469  0.0238  0.1906 -0.0155
  635W        W 3400   8.857   2.438   6.576  0.0599  0.2734  0.1557
  636W        W 3401   8.581   1.075   1.485  0.3190  0.0677  0.1560
  637W        W 3402   3.580   9.041   6.966 -0.1163 -0.0206  0.1228
  638W        W 3403   5.211   3.760   0.516  0.0479 -0.2504 -0.2574
  639W        W 3404   6.679   8.496   6.684 -0.1608 -0.1432  0.0176
  640W        W 3405   5.508   7.847   5.001 -0.1825  0.1293 -0.0481
  641W        W 3406   5.366   8.591   0.323  0.0858  0.3300 -0.2023
  642W        W 3407   0.958   7.162   0.848  0.1622  0.1904  0.1617
  643W        W 3408   5.351   8.120   1.476 -0.0816 -0.1822  0.1250
  644W        W 3409   1.154   2.413   0.157  0.2086 -0.0250 -0.0433
  645W        W 3410   2.455   3.033   0.457 -0.1418 -0.0404  0.0860
  646W        W 3411   7.609   8.175   0.214  0.3110  0.0519 -0.0553
  647W        W 3412   4.454   7.351   0.055  0.1857  0.1964  0.1958
  648W        W 3413   1.794   4.930   0.071  0.2947  0.1374 -0.3172
  649W        W 3414   2.081   2.930   6.130  0.4090 -0.2941 -0.1081
  650W        W 3415   7.474   3.955   6.794 -0.0538  0.1014  0.0665
  651W        W 3416   3.961   5.232   6.525 -0.0436 -0.3361 -0.0512
  652W        W 3417   1.113   7.676   6.988  0.2022 -0.3718  0.1849
  653W        W 3418   4.489   5.504   6.406  0.0744 -0.0038 -0.0693
  654W        W 3419   4.852   5.691   6.760  0.1607  0.3629 -0.1844
  655W        W 3420   1.103   6.948   1.889  0.3309 -0.0228  0.1207
  656W        W 3421   7.069   7.437   1.882 -0.0800  0.3542  0.2029
  657W        W 3422   2.007   0.235   6.927 -0.0799 -0.1483 -0.1304
  658W        W 3423   1.922   7.934   4.920  0.2136  0.0572 -0.0711
  659W        W 3424   6.297   3.575   1.154 -0.2919 -0.0258 -0.1751
  660W        W 3425   7.378   9.125   0.512 -0.1933 -0.3822 -0.2060
  661W        W 3426   2.516   5.269   1.114  0.0220  0.0150 -0.4322
  662W        W 3427   5.161   0.115   6.061  0.2657 -0.4592  0.0179
  663W        W 3428   7.737   2.900   1.068 -0.0254 -0.0137 -0.0757
  664W        W 3429   6.981   8.160   1.343 -0.1784  0.4023  0.0522
  665W        W 3430   0.496   8.940   5.259 -0.2783  0.2277  0.0391
  666W        W 3431   4.625   3.658   5.545 -0.2025  0.0567 -0.3326
  667W        W 3432   0.962   4.806   6.610  0.0408  0.2672  0.0956
  668W        W 3433   7.135   4.549   0.377  0.0827 -0.0917  0.1567
  669W        W 3434   8.760   5.754   1.407  0.0977 -0.1924 -0.2008
  670W        W 3435   6.182   8.077   0.296 -0.0080  0.1298 -0.3937
  671W        W 3436   5.126   7.895   6.321  0.2415  0.2153 -0.1783
  672W        W 3437   1.639   4.044   0.504 -0.0849 -0.1440  0.4292
  673W        W 3438   6.062   5.567   1.459  0.0848 -0.3345 -0.0441
  674W        W 3439   8.619   7.214   1.396 -0.0645 -0.1603 -0.0559
  675W        W 3440   4.734   0.393   5.891 -0.0182  0.1560  0.0929
  676W        W 3441   4.891   1.416   0.646 -0.2226  0.0247 -0.0821
  677W        W 3442   3.373   4.359   6.314  0.2952 -0.0119  0.0091
  678W        W 3443   7.593   3.930   5.789  0.0881  0.6306 -0.2153
  679W        W 3444   2.982   6.178   1.602  0.0583  0.2612  0.1941
  680W        W 3445   8.290   3.648   0.758 -0.0293 -0.3627 -0.1071
  681W        W 3446   7.806   5.385   5.643 -0.0697 -0.0528 -0.0504
  682W        W 3447   0.680   1.018   6.897 -0.0518 -0.2085 -0.3615
  683W        W 3448   0.198   4.167   0.172  0.0996 -0.0905  0.1202
  684W        W 3449   5.810   4.105   5.989  0.1543  0.0322 -0.0418
  685W        W 3450   0.472   5.611   1.519  0.2280 -0.1430  0.3815
  686W        W 3451   7.858   8.505   1.318 -0.2974 -0.0638 -0.1650
  687W        W 3452   2.235   7.577   0.316  0.3196  0.0324 -0.0223
  688W        W 3453   6.537   0.608   0.861 -0.2194 -0.2149 -0.0336
  689W        W 3454   9.123   0.064   0.531  0.1527  0.0540 -0.1093
  690W        W 3455   7.866   7.247   0.781  0.0082 -0.2147 -0.0352
  691W        W 3456   5.435   5.091   0.484  0.2081  0.4602  0.0764
  692W        W 3457   0.103   4.277   6.600 -0.0243 -0.4195 -0.0284
  693W        W 3458   0.036   1.138   5.569 -0.1802  0.2431 -0.1492
  694W        W 3459   6.539   5.331   6.154  0.1564  0.0593  0.1117
  695W        W 3460   1.651   0.108   6.125  0.0025  0.1043 -0.0470
  696W        W 3461   2.564   0.420   0.161  0.1522  0.1613 -0.1363
  697W        W 3462   2.293   8.602   1.270 -0.0155  0.1382 -0.2563
  698W        W 3463   0.244   7.626   6.626  0.0833 -0.0835 -0.0223
  699W        W 3464   3.575   0.772   6.813 -0.5871  0.0801 -0.2890
  700W        W 3465   5.237   0.470   0.507  0.0678  0.1080  0.2842
  701W        W 3466   4.799   4.056   6.361  0.0117  0.0253  0.0805
  702W        W 3467   1.280   2.457   5.821  0.0020 -0.3646  0.1663
  703W        W 3468   2.324   2.889   6.667  0.5489 -0.0606 -0.1432
  704W        W 3469   3.633   4.333   0.786 -0.0062 -0.1612  0.1451
  705W        W 3470   3.612   5.600   6.446 -0.0171  0.1301  0.2040
  706W        W 3471   6.604   4.365   1.627  0.0160 -0.0028  0.0525
  707W        W 3472   2.850   1.716   0.166  0.1388 -0.2730  0.1338
  708W        W 3473   9.101   1.561   0.891  0.0092  0.0026 -0.0126
  709W        W 3474   1.809   8.623   0.541 -0.1282 -0.1394  0.2281
  710W        W 3475   5.455   6.854   0.617 -0.2490 -0.0832  0.1333
  711W        W 3476   0.484   6.547   6.241 -0.1686  0.1296 -0.0756
  712W        W 3477   8.176   5.001   6.213  0.2301  0.1397 -0.0537
  713W        W 3478   3.461   3.287   1.063  0.0127 -0.1492 -0.0279
  714W        W 3479   6.184   7.144   6.003  0.1091 -0.1129 -0.0495
  715W        W 3480   6.679   0.274   7.033 -0.0755  0.1751 -0.2366
  716W        W 3481   7.922   1.187   7.033  0.0956  0.0861 -0.0142
  717W        W 3482   8.026   4.694   0.481  0.3300 -0.1806  0.1343
  718W        W 3483   2.409   3.364   6.981 -0.0042  0.3931 -0.1361
  719W        W 3484   5.370   5.053   1.042  0.2335  0.2767  0.0195
  720W        W 3485   6.224   6.887   1.076  0.3191 -0.1195 -0.2824
  721W        W 3486   9.130   0.232   6.604  0.0527  0.1005  0.0024
  722W        W 3487   4.800   2.794   5.734 -0.0949  0.1883 -0.2071
  723W        W 3488   7.061   4.935   5.324 -0.0837  0.0186 -0.0398
  724W        W 3489   5.326   2.342   1.289  0.1480 -0.1203 -0.0319
  725W        W 3490   7.734   2.943   0.554 -0.3384 -0.1528  0.1810
  726W        W 3491   1.749   4.294   6.422  0.0658 -0.0857 -0.0214
  727W        W 3492   2.107   4.234   0.563  0.2626  0.1453  0.0774
  728W        W 3493   2.328   0.328   6.477 -0.0842  0.0603  0.0787
  729W        W 3494   3.085   2.726   5.974 -0.0101 -0.0393  0.4782
  730W        W 3495   2.387   2.826   0.932 -0.1555  0.4972 -0.1307
  731W        W 3496   0.102   0.219   5.234  0.1247 -0.1059  0.0824
  732W        W 3497   0.419   1.252   5.267  0.0134  0.1501 -0.1367
  733W        W 3498   2.245   4.181   6.764  0.0192  0.1588  0.2676
  734W        W 3499   5.852   0.461   0.326 -0.0758 -0.3013 -0.0340
  735W        W 3500   6.575   1.773   6.082  0.2926 -0.0279  0.1765
  736W        W 3501   0.536   1.849   6.729  0.0138  0.0958 -0.1445
  737W        W 3502   7.246   9.068   5.975 -0.4465  0.1436 -0.0966
  738W        W 3503   0.783   8.997   1.673  0.2736  0.1994  0.0426
  739W        W 3504   7.080   2.231   0.201  0.0495 -0.2276 -0.2053
  740W        W 3505   3.230   1.012   0.080 -0.2127  0.1612 -0.1079
  741W        W 3506   8.617   5.403   6.104 -0.1788 -0.2381 -0.0872
  742W        W 3507   4.180   2.692   6.570 -0.0553 -0.2750  0.1708
  743W        W 3508   5.784   8.649   6.194 -0.3387 -0.3369  0.1611
  744W        W 3509   8.160   0.142   1.187  0.0879  0.1984 -0.1354
  745W        W 3510   6.654   9.051   5.225 -0.3666 -0.2326  0.1999
  746W        W 3511   4.832   6.992   0.113  0.2453 -0.2007  0.3189
  747W        W 3512   0.150   7.432   0.071  0.0383  0.3024  0.0233
  748W        W 3513   4.123   1.793   0.627 -0.1515 -0.4237 -0.3434
  749W        W 3514   5.302   6.216   6.523  0.0457  0.0447  0.1986
  750W        W 3515   2.852   6.951   2.006 -0.2221 -0.0927 -0.0876
  751W        W 3516   1.568   1.945   0.719  0.0529 -0.1830 -0.0436
  752W        W 3517   0.341   1.139   0.987 -0.3441  0.0431  0.0876
  753W        W 3518   6.621   5.618   6.890  0.0590  0.2269 -0.0029
  754W        W 3519   6.427   8.506   0.103 -0.1266  0.0468  0.3181
  755W        W 3520   3.229   2.909   7.047  0.0322  0.0166  0.0307
  756W        W 3521   5.006   8.078   0.304 -0.3623  0.0316 -0.0073
  757W        W 3522   2.336   1.950   5.758  0.0222  0.0526  0.0673
  758W        W 3523   5.593   3.447   0.471  0.0984 -0.4325 -0.0310
  759W        W 3524   5.240   2.818   0.985 -0.1419 -0.1846  0.0154
  760W        W 3525   2.564   3.350   0.865 -0.2285 -0.2000  0.1036
  761W        W 3526   2.125   5.081   6.290 -0.1604 -0.0872  0.1292
  762W        W 3527   7.732   1.712   0.056  0.2554 -0.1616  0.0148
  763W        W 3528   1.822   7.290   0.732 -0.0375  0.0259 -0.0217
  764W        W 3529   7.863   7.270   1.387  0.1398  0.1856 -0.3003
  765W        W 3530   0.649   3.556   6.851  0.0574  0.4408  0.1672
  766W        W 3531   8.792   3.887   0.758  0.4804 -0.2411 -0.2802
  767W        W 3532   7.728   0.976   5.905 -0.0364 -0.0305  0.2461
  768W        W 3533   5.257   8.768   6.267  0.0280 -0.0745  0.0100
  769W        W 3534   2.990   0.468   6.951  0.2427 -0.1716  0.0698
  770W        W 3535   3.838   5.452   0.645  0.0846 -0.0101 -0.1627
  771W        W 3536   6.104   3.359   0.512 -0.1512 -0.0572 -0.0047
  772W        W 3537   3.093   4.644   6.675 -0.1324  0.1975 -0.1255
  773W        W 3538   5.898   5.219   6.532  0.1875  0.5192 -0.1717
  774W        W 3539   3.982   3.993   0.444  0.2483 -0.1040 -0.0893
  775W        W 3540   7.523   7.226   6.046  0.0227 -0.0830  0.0898
  776W        W 3541   2.683   4.003   6.621 -0.1980 -0.0286  0.4111
  777W        W 3542   1.140   1.676   0.884  0.0272  0.0695  0.0070
  778W        W 3543   0.153   5.904   6.467  0.1071  0.2361  0.0007
  779W        W 3544   5.819   3.941   0.669  0.0286  0.2650  0.0630
  780W        W 3545   5.825   7.925   6.255  0.1711 -0.2317  0.0941
  781W        W 3546   1.925   0.467   1.181 -0.1454 -0.0696  0.0651
  782W        W 3547   5.346   5.311   6.688  0.0543  0.2789 -0.3404
  783W        W 3548   7.448   3.841   1.072  0.1777  0.1772 -0.0191
  784W        W 3549   3.455   3.865   6.481 -0.0850 -0.0699  0.1287
  785W        W 3550   0.281   4.371   6.067  0.1666  0.0704  0.1796
  786W        W 3551   3.423   4.667   5.921  0.0222 -0.1184 -0.1509
  787W        W 3552   8.236   7.381   1.091 -0.0930  0.1573  0.0024
  788W        W 3553   3.855   1.280   0.545 -0.2612  0.0826 -0.4048
  789W        W 3554   4.411   5.304   0.670  0.0847 -0.0386  0.0614
  790W        W 3555   7.174   1.141   5.938 -0.1259  0.0377 -0.3945
  791W        W 3556   2.374   7.760   4.868  0.0673  0.1889  0.1204
  792W        W 3557   6.997   0.665   0.052 -0.0648  0.1780 -0.0770
  793W        W 3558   3.342   8.566   0.675  0.0224 -0.1326  0.0844
  794W        W 3559   1.415   8.093   6.121  0.0203  0.0813  0.2135
  795W        W 3560   2.770   2.178   5.073  0.0513 -0.0299 -0.3291
  796W        W 3561   3.403   1.267   6.672 -0.1426 -0.1750 -0.0804
  797W        W 3562   0.912   8.440   1.684 -0.3832 -0.0421  0.2244
  798W        W 3563   5.470   5.781   1.341 -0.0169  0.0538 -0.1279
  799W        W 3564   1.690   8.309   5.165  0.2858  0.1827  0.1448
  800W        W 3565   5.863   4.905   6.901  0.3843 -0.2141 -0.0652
  801W        W 3566   5.220   3.773   0.037  0.0589  0.2359  0.0055
  802W        W 3567   3.337   3.002   0.469 -0.2880 -0.1603  0.0263
  803W        W 3568   7.733   6.698   0.073 -0.0789  0.1908  0.1290
  804W        W 3569   0.205   3.841   5.452 -0.3328  0.2069 -0.0607
  805W        W 3570   0.504   2.144   6.373 -0.0061 -0.1151  0.1786
  806W        W 3571   1.120   7.640   6.071  0.1179 -0.0868  0.1196
  807W        W 3572   1.311   8.954   5.886  0.1143 -0.3250  0.1035
  808W        W 3573   3.377   1.411   5.098  0.1099 -0.4638 -0.1891
  809W        W 3574   5.609   8.769   0.706  0.2145 -0.0346 -0.3592
  810W        W 3575   3.947   3.963   1.499  0.0651  0.0179  0.3016
  811W        W 3576   5.149   2.131   5.001  0.4078 -0.0766 -0.4015
  812W        W 3577   3.375   0.861   6.371  0.1991  0.0213 -0.0358
  813W        W 3578   6.461   1.642   0.480  0.2472 -0.0995  0.4026
  814W        W 3579   5.933   7.484   6.613  0.2348 -0.1922  0.0769
  815W        W 3580   5.377   4.265   0.604 -0.0161 -0.2119 -0.2353
  816W        W 3581   4.120   6.954   6.111 -0.0261  0.1222  0.0366
  817W        W 3582   8.409   7.233   7.020 -0.0365  0.2149 -0.2930
  818W        W 3583   4.753   0.571   0.054 -0.1321  0.3841  0.0740
  819W        W 3584   7.977   0.674   0.806  0.1614 -0.3218  0.1532
  820W        W 3585   5.587   4.715   1.300 -0.0298  0.0894 -0.4590
  821W        W 3586   6.623   4.702   5.620  0.1696  0.1386 -0.0417
  822W        W 3587   6.052   7.797   5.808 -0.0524 -0.2374  0.1371
  823W        W 3588   6.462   2.579   1.309 -0.3105  0.0286 -0.2156
  824W        W 3589   6.144   8.913   1.438 -0.2693 -0.1133 -0.0517
  825W        W 3590   0.489   7.923   5.477 -0.1729  0.0741 -0.0410
  826W        W 3591   2.087   3.178   0.766 -0.0902  0.0550 -0.1233
  827W        W 3592   3.721   9.031   6.473 -0.1373  0.2346 -0.0270
  828W        W 3593   6.812   6.061   1.126 -0.3526  0.0798 -0.0517
  829W        W 3594   4.011   7.291   5.731  0.0220 -0.0314 -0.1154
  830W        W 3595   4.971   1.616   5.960 -0.2020 -0.2120 -0.1762
  831W        W 3596   5.576   1.016   5.651  0.0160  0.1770 -0.1984
  832W        W 3597   4.883   7.168   5.357  0.1582  0.2278 -0.0141
  833W        W 3598   4.128   0.979   5.929 -0.2344  0.0787  0.2193
  834W        W 3599   8.837   5.186   1.220  0.0058 -0.2603  0.0293
  835W        W 3600   1.062   6.157   0.223 -0.0562  0.0242  0.1965
  836W        W 3601   5.726   1.610   5.590 -0.1151 -0.0997 -0.0726
  837W        W 3602   4.126   8.345   2.017  0.0880  0.0241 -0.1388
  838W        W 3603   3.044   0.933   0.838  0.1938 -0.0183 -0.2563
  839W        W 3604   1.785   7.781   6.112 -0.1153 -0.1970  0.0421
  840W        W 3605   4.607   4.837   6.152 -0.1266  0.1099  0.0873
  841W        W 3606   0.749   0.472   0.433 -0.0128 -0.2413 -0.1818
  842W        W 3607   5.294   3.662   6.380  0.0893  0.4282  0.3423
  843W        W 3608   4.089   3.247   1.021 -0.0242  0.4895 -0.1058
  844W        W 3609   1.479   1.820   6.018  0.1485  0.1987 -0.3736
  845W        W 3610   5.011   3.233   1.276 -0.0207  0.2319 -0.0712
  846W        W 3611   7.979   7.353   5.899 -0.3100 -0.0960 -0.2310
  847W        W 3612   1.673   9.116   1.873 -0.1916  0.1522  0.2297
  848W        W 3613   0.739   5.238   6.212 -0.0029  0.2495  0.0252
  849W        W 3614   4.598   3.606   0.454 -0.1849 -0.0788  0.1536
  850W        W 3615   7.829   5.644   1.027 -0.1153 -0.2431 -0.1317
  851W        W 3616   2.301   5.990   6.595 -0.1493  0.0450  0.1023
  852W        W 3617   7.027   8.095   5.881  0.0147 -0.0685  0.1052
  853W        W 3618   5.228   0.539   5.660 -0.0555  0.1691 -0.2639
  854W        W 3619   8.730   6.460   6.006  0.1628 -0.0693  0.0035
  855W        W 3620   1.060   1.964   5.643 -0.1125 -0.2465 -0.0823
  856W        W 3621   2.361   2.003   6.318 -0.5158 -0.1447 -0.0404
  857W        W 3622   1.474   7.846   1.438 -0.3218 -0.1324  0.3181
  858W        W 3623   6.609   9.090   6.607  0.0962  0.0813  0.1992
  859W        W 3624   6.168   4.575   1.021 -0.1353  0.3881 -0.3061
  860W        W 3625   5.816   4.929   6.085 -0.0695 -0.0133  0.0615
  861W        W 3626   8.664   1.311   1.986 -0.1478 -0.2277  0.1063
  862W        W 3627   5.369   8.909   1.141 -0.0907 -0.1210  0.0594
  863W        W 3628   0.856   2.870   5.911  0.3445 -0.1367 -0.1410
  864W        W 3629   4.951   1.043   6.378  0.1122  0.0211 -0.0075
  865W        W 3630   0.632   4.423   6.525  0.0595  0.1024 -0.3029
  866W        W 3631   4.496   5.963   6.573  0.0758  0.0275  0.3451
  867W        W 3632   3.510   7.194   6.064 -0.1803 -0.3210  0.0733
  868W        W 3633   0.618   4.867   1.010  0.3863 -0.1032 -0.1763
  869W        W 3634   0.014   8.910   1.515  0.2705  0.2436 -0.2403
  870W        W 3635   1.679   1.461   1.074 -0.0153 -0.0346 -0.1488
  871W        W 3636   0.820   8.164   0.475 -0.0491 -0.1625 -0.3475
  872W        W 3637   0.378   1.331   0.540 -0.0096  0.1949 -0.0911
  873W        W 3638   8.567   3.185   6.753  0.2784  0.0704  0.0226
  874W        W 3639   0.907   7.191   1.429  0.4394 -0.0245  0.1549
  875W        W 3640   4.301   5.363   1.139  0.0707 -0.0751 -0.1948
  876W        W 3641   0.994   8.495   5.740  0.0925 -0.0304 -0.0203
  877W        W 3642   1.269   0.973   5.702 -0.0868 -0.0930  0.2449
  878W        W 3643   0.770   1.115   4.955  0.1113  0.0987  0.0346
  879W        W 3644   2.524   9.114   0.422 -0.2132  0.0039  0.1246
  880W        W 3645   5.153   4.051   6.734  0.0860 -0.4964  0.0248
  881W        W 3646   6.393   8.724   5.486  0.0151 -0.0111 -0.1115
  882W        W 3647   3.766   4.880   0.792 -0.2633 -0.0488 -0.0526
  883W        W 3648   7.075   7.019   0.412 -0.1247  0.2120 -0.0793
  884W        W 3649   0.765   4.474   5.482  0.0227 -0.3045 -0.4430
  885W        W 3650   2.241   3.443   5.398 -0.2943  0.3809 -0.2488
  886W        W 3651   5.658   5.787   6.668 -0.0932  0.0708  0.0725
  887W        W 3652   5.886   2.179   1.691 -0.3711  0.3705  0.2268
  888W        W 3653   1.309   4.985   1.432  0.0033  0.1790  0.1138
  889W        W 3654   5.985   6.859   0.535  0.0866  0.2765 -0.0817
  890W        W 3655   8.560   9.092   0.414  0.2779 -0.1620  0.0707
  891W        W 3656   4.420   5.720   5.785 -0.0605  0.1432 -0.0415
  892W        W 3657   6.193   2.714   6.432  0.2086  0.3380  0.3488
  893W        W 3658   8.917   0.096   0.013 -0.2251 -0.0460 -0.2154
  894W        W 3659   3.918   3.348   6.890 -0.2080  0.0264  0.1322
  895W        W 3660   6.544   1.183   6.792  0.1260 -0.2531  0.1948
  896W        W 3661   8.682   5.671   0.742 -0.1028  0.0782  0.2904
  897W        W 3662   4.947   1.834   5.435  0.0847  0.0355  0.0684
  898W        W 3663   3.433   2.019   6.357  0.3556  0.1033 -0.0705
  899W        W 3664   8.126   7.563   2.060 -0.2398  0.2275  0.2904
  900W        W 3665   1.806   2.288   5.633  0.3001  0.0773 -0.4327
  901W        W 3666   1.633   6.901   5.967  0.3168  0.1717  0.0354
  902W        W 3667   0.660   5.952   6.528  0.0196 -0.2852 -0.1420
  903W        W 3668   8.774   3.907   1.415 -0.0432  0.0610 -0.1830
  904W        W 3669   7.382   1.394   1.375 -0.2092  0.1543 -0.0647
  905W        W 3670   7.210   8.324   0.554  0.0733  0.0864 -0.3567
  906W        W 3671   5.661   4.600   0.327  0.2577 -0.1967 -0.0572
  907W        W 3672   6.423   0.201   0.463  0.2137  0.0300  0.1505
  908W        W 3673   4.904   8.748   5.825 -0.3546 -0.0482 -0.1493
  909W        W 3674   6.893   0.806   6.619 -0.3261  0.0496  0.2807
  910W        W 3675   8.702   8.715   6.899 -0.2964 -0.1210 -0.1861
  911W        W 3676   6.287   3.457   5.078  0.2345  0.0089  0.0767
  912W        W 3677   7.861   6.199   0.816 -0.0403 -0.1405 -0.1902
  913W        W 3678   5.249   6.781   1.063 -0.1462 -0.0783  0.0871
  914W        W 3679   8.376   3.336   5.868 -0.1739  0.2691 -0.2238
  915W        W 3680   2.120   2.452   6.740  0.1244 -0.0013  0.3525
  916W        W 3681   6.148   7.686   1.185 -0.0974 -0.0555 -0.1534
  917W        W 3682   7.340   4.270   2.317 -0.0979 -0.0218 -0.2495
  918W        W 3683   0.927   9.006   6.377  0.0788 -0.3507  0.3795
  919W        W 3684   1.752   3.600   0.732 -0.5015  0.0789 -0.0706
  920W        W 3685   7.435   4.917   1.323  0.2247  0.3064  0.2578
  921W        W 3686   8.687   7.088   0.899  0.2213  0.0213  0.0358
  922W        W 3687   3.252   6.824   5.779  0.2064  0.2799 -0.1190
  923W        W 3688   0.291   0.442   0.536 -0.3580  0.0265 -0.1164
  924W        W 3689   8.380   6.738   6.239  0.1894  0.0966 -0.2542
  925W        W 3690   7.939   7.647   6.757 -0.0629  0.0987 -0.1453
  926W        W 3691   0.870   7.170   5.050  0.1154 -0.1549  0.2586
  927W        W 3692   1.907   2.788   1.808  0.2174  0.0171  0.2598
  928W        W 3693   3.388   5.547   0.874 -0.1733  0.0537 -0.1937
  929W        W 3694   5.887   4.071   5.508 -0.0976  0.0938  0.3417
  930W        W 3695   8.723   8.564   1.544 -0.2414 -0.4241 -0.1468
  931W        W 3696   3.070   7.570   5.935 -0.2339 -0.0764  0.3659
  932W        W 3697   0.255   8.867   0.251  0.1671 -0.1872 -0.0500
  933W        W 3698   7.975   5.605   1.481  0.0725  0.1202 -0.1146
  934W        W 3699   1.718   0.490   0.232  0.2023 -0.0982 -0.1215
  935W        W 3700   8.475   1.663   0.669 -0.2120 -0.0444 -0.0935
  936W        W 3701   8.398   5.280   2.227 -0.0485 -0.4961 -0.0033
  937W        W 3702   6.358   0.448   5.282  0.3582  0.0982  0.0888
  938W        W 3703   1.171   2.920   0.139  0.3998  0.1236  0.1253
  939W        W 3704   7.451   0.921   0.065  0.0974 -0.0865 -0.1763
  940W        W 3705   8.031   4.164   5.696 -0.1951  0.0402  0.0270
  941W        W 3706   4.228   8.574   0.726 -0.2192 -0.0852 -0.0433
  942W        W 3707   8.304   5.062   6.742 -0.0112  0.1574 -0.0323
  943W        W 3708   3.727   7.646   5.884 -0.1010 -0.0944  0.0021
  944W        W 3709   8.572   6.441   1.496  0.0197 -0.0126  0.0959
  945W        W 3710   3.872   1.798   6.278 -0.3951  0.2365 -0.2560
  946W        W 3711   2.035   6.825   6.195 -0.0833 -0.0549 -0.2209
  947W        W 3712   5.817   3.035   0.287 -0.0509 -0.0488  0.1875
  948W        W 3713   7.090   8.119   6.936  0.0609 -0.0681 -0.0534
  949W        W 3714   1.007   5.693   6.151 -0.3766  0.3498 -0.1473
  950W        W 3715   7.505   2.144   7.028  0.0259 -0.0733 -0.0387
  951W        W 3716   4.720   4.767   5.596  0.2112  0.2482  0.1349
  952W        W 3717   2.092   8.974   6.243 -0.2423 -0.1011  0.2412
  953W        W 3718   2.493   3.224   6.373 -0.2396  0.1686 -0.0748
  954W        W 3719   4.989   5.934   0.662 -0.0836  0.5156  0.1691
  955W        W 3720   3.758   1.647   6.763  0.0941  0.2131  0.0182
  956W        W 3721   8.211   1.740   1.052 -0.0757 -0.0862 -0.0063
  957W        W 3722   0.039   3.548   6.413 -0.2827  0.1511  0.2041
  958W        W 3723   7.965   1.666   0.496  0.2051  0.1072 -0.0440
  959W        W 3724   6.145   4.707   6.520  0.1066  0.0287 -0.1948
  960W        W 3725   2.954   1.542   6.456  0.2615 -0.2815 -0.2026
  961W        W 3726   3.847   8.050   1.163  0.2587 -0.1458  0.1481
  962W        W 3727   4.253   8.596   0.169  0.0053  0.1218  0.0563
  963W        W 3728   8.099   9.131   6.617  0.0206  0.1641  0.2756
  964W        W 3729   9.029   3.118   0.843  0.0400 -0.0172 -0.0342
  965W        W 3730   3.484   7.674   6.313 -0.1198 -0.1888 -0.0521
  966W        W 3731   2.453   0.820   6.187  0.0470 -0.1475 -0.0439
  967W        W 3732   0.812   4.980   0.487 -0.0556  0.1647  0.2596
  968W        W 3733   3.874   6.167   7.066 -0.1444  0.2853  0.3663
  969W        W 3734   1.875   1.253   0.694 -0.0775  0.4180  0.0437
  970W        W 3735   5.695   5.453   1.079 -0.0355 -0.2946 -0.1068
  971W        W 3736   4.082   2.976   5.214 -0.0299 -0.1051  0.1344
  972W        W 3737   7.810   3.220   1.842  0.0796 -0.5819 -0.0778
  973W        W 3738   8.438   7.380   0.399  0.2462 -0.1129 -0.1259
  974W        W 3739   2.926   8.027   6.899 -0.2160 -0.2734 -0.0314
  975W        W 3740   5.221   1.764   6.932  0.1439  0.1661 -0.0777
  976W        W 3741   5.359   1.879   5.747  0.0755  0.1302 -0.1910
  977W        W 3742   5.612   8.770   6.675 -0.0061 -0.0922  0.2936
  978W        W 3743   7.134   6.270   0.103 -0.0539 -0.1633  0.0584
  979W        W 3744   7.283   4.171   0.710  0.5814  0.1064  0.0704
  980W        W 3745   0.694   0.471   7.030  0.0237  0.4211 -0.2624
  981W        W 3746   6.652   2.674   6.754  0.0643 -0.0020 -0.0556
  982W        W 3747   0.620   4.748   1.892  0.0782 -0.1779 -0.0126
  983W        W 3748   1.477   7.735   5.738 -0.0760 -0.1946  0.2117
  984W        W 3749   0.649   6.226   0.608 -0.1499  0.2702  0.4866
  985W        W 3750   7.979   8.537   1.808  0.3283 -0.1385  0.2700
  986W        W 3751   7.052   6.129   5.722  0.1847 -0.0552  0.0601
  987W        W 3752   5.717   0.734   6.944  0.2887  0.2280  0.0549
  988W        W 3753   4.136   3.747   5.813 -0.2264 -0.3208  0.2305
  989W        W 3754   7.544   8.042   1.386  0.0940 -0.2346  0.3075
  990W        W 3755   1.519   1.391   6.335 -0.0922 -0.0870 -0.1198
  991W        W 3756   0.967   6.035   0.928  0.0009  0.2433  0.0253
  992W        W 3757   2.072   3.344   0.286 -0.3670  0.0101 -0.2326
  993W        W 3758   0.726   2.967   0.880 -0.0761  0.0995 -0.0537
  994W        W 3759   2.525   4.234   0.097 -0.2978 -0.1978 -0.2189
  995W        W 3760   6.866   1.352   1.540  0.1870 -0.1870 -0.3536
  996W        W 3761   6.637   7.204   0.111 -0.1066 -0.1963  0.2221
  997W        W 3762   0.408   6.139   1.341 -0.0897  0.2335  0.1329
  998W        W 3763   8.176   1.461   1.556  0.1280  0.1873  0.1622
  999W        W 3764   0.150   6.815   0.376 -0.0637  0.1608  0.0010
 1000W        W 3765   7.086   7.332   5.421  0.0710 -0.0790 -0.0081
 1001W        W 3766   2.505   8.632   5.279 -0.1181  0.0762  0.2431
 1002W        W 3767   8.900   8.298   0.335  0.0818  0.1045 -0.1796
 1003W        W 3768   7.924   1.539   6.700  0.0466  0.0187  0.0168
 1004W        W 3769   3.027   0.951   6.685  0.0937 -0.1575 -0.2186
 1005W        W 3770   5.651   0.026   6.123 -0.0546 -0.1116  0.0901
 1006W        W 3771   1.801   7.623   6.596  0.2470  0.3666 -0.0528
 1007W        W 3772   8.369   6.038   6.085  0.0781  0.2627  0.0972
 1008W        W 3773   0.467   5.405   0.057 -0.3061 -0.0737 -0.1878
 1009W        W 3774   4.487   3.165   5.523 -0.0293  0.1398 -0.0181
 1010W        W 3775   0.293   4.401   0.869  0.0089 -0.0851 -0.1499
 1011W        W 3776   7.727   3.871   0.644 -0.2557 -0.0927 -0.2141
 1012W        W 3777   8.309   6.060   1.368 -0.1188  0.1738  0.1921
 1013W        W 3778   8.294   8.227   6.029  0.0042 -0.1083 -0.0466
 1014W        W 3779   4.199   5.989   1.099  0.0728  0.2196 -0.2506
 1015W        W 3780   7.721   0.420   6.412  0.1435  0.1240 -0.1296
 1016W        W 3781   5.438   8.695   5.835  0.2424 -0.3154 -0.2742
 1017W        W 3782   0.553   8.325   0.047 -0.1694  0.1053  0.2950
 1018W        W 3783   6.885   2.166   1.787 -0.0977 -0.0575 -0.2768
 1019W        W 3784   3.987   2.634   0.461 -0.1996 -0.1435  0.2191
 1020W        W 3785   0.776   6.731   1.493 -0.2657 -0.2950 -0.0164
 1021W        W 3786   2.080   7.540   5.732  0.1064  0.1902  0.2687
 1022W        W 3787   9.108   5.917   0.662  0.2008  0.2491 -0.0554
 1023W        W 3788   3.183   3.786   1.155  0.1769 -0.2516 -0.1021
 1024W        W 3789   2.519   6.626   1.779 -0.3141  0.0576 -0.0595
 1025W        W 3790   4.634   1.837   0.699 -0.1526 -0.0437 -0.0152
 1026W        W 3791   5.209   4.440   6.422 -0.1006  0.2185 -0.1220
 1027W        W 3792   0.272   2.248   0.077 -0.2040  0.1879  0.2673
 1028W        W 3793   7.495   0.400   0.233  0.0787  0.0171  0.1794
 1029W        W 3794   1.907   6.804   1.075  0.0820 -0.0920  0.0889
 1030W        W 3795   6.314   0.611   6.059 -0.0448 -0.0582  0.0214
 1031W        W 3796   1.649   1.528   1.576  0.1215  0.0626 -0.2294
 1032W        W 3797   6.469   8.355   0.643 -0.0044  0.0069  0.0196
 1033W        W 3798   8.489   9.077   5.832  0.1570  0.2081  0.1015
 1034W        W 3799   2.708   1.002   0.028  0.2364  0.0201  0.0041
 1035W        W 3800   4.403   9.085   0.134 -0.0936 -0.0133  0.0869
 1036W        W 3801   8.064   3.384   0.066  0.1168  0.2168 -0.0324
 1037W        W 3802   1.180   3.343   5.071 -0.1302 -0.1477  0.2067
 1038W        W 3803   9.112   4.551   1.276 -0.0342 -0.0630  0.1957
 1039W        W 3804   6.631   6.113   0.009  0.1553  0.1589  0.2917
 1040W        W 3805   3.339   1.382   0.401 -0.0413 -0.1403  0.1203
 1041W        W 3806   1.050   7.177   6.918  0.0056  0.0372 -0.0098
 1042W        W 3807   6.215   6.447   0.659  0.0338  0.1844 -0.1659
 1043W        W 3808   2.726   8.165   5.533  0.0409 -0.0885  0.1051
 1044W        W 3809   0.478   5.656   6.119  0.0950 -0.2015  0.1602
 1045W        W 3810   7.166   7.702   1.379 -0.2637 -0.2510 -0.2808
 1046W        W 3811   7.744   4.368   0.715  0.3766 -0.3477 -0.2652
 1047W        W 3812   6.626   6.791   5.919 -0.2417  0.1464  0.0796
 1048W        W 3813   8.560   2.967   0.193 -0.3905 -0.0228 -0.0079
 1049W        W 3814   8.612   4.425   1.274 -0.1687 -0.1232 -0.2594
 1050W        W 3815   3.993   4.582   1.200 -0.2421 -0.3393 -0.1312
 1051W        W 3816   4.946   0.583   6.678 -0.0032  0.1976 -0.1497
 1052W        W 3817   5.342   7.999   0.934 -0.3011 -0.0292  0.1140
 1053W        W 3818   2.076   2.317   0.150 -0.0733  0.0751 -0.2945
 1054W        W 3819   3.374   9.023   5.695 -0.2766  0.1621 -0.1056
 1055W        W 3820   6.971   1.668   6.856 -0.0099 -0.0651 -0.0524
 1056W        W 3821   2.432   6.590   0.343  0.0616 -0.1419 -0.1177
 1057W        W 3822   8.445   8.875   0.847 -0.3493  0.1555  0.1754
 1058W        W 3823   6.322   6.954   6.737  0.0861  0.1873  0.1562
 1059W        W 3824   0.972   8.017   5.636  0.1340  0.0603 -0.1759
 1060W        W 3825   7.780   1.696   1.304 -0.0551 -0.0526  0.0939
 1061W        W 3826   4.065   5.554   6.156 -0.2030 -0.3103  0.0955
 1062W        W 3827   0.171   4.952   0.850  0.1391 -0.1024  0.0195
 1063W        W 3828   7.724   0.042   6.952 -0.1158  0.0020  0.1772
 1064W        W 3829   4.021   7.264   1.076 -0.2704 -0.1793  0.1313
 1065W        W 3830   7.984   4.274   1.128 -0.1684  0.0917  0.1141
 1066W        W 3831   0.101   1.564   6.661  0.1836  0.1818  0.3083
 1067W        W 3832   3.153   3.425   1.495 -0.0156  0.1668  0.4492
 1068W        W 3833   6.578   7.930   6.830  0.2422  0.0076 -0.1568
 1069W        W 3834   3.182   5.470   6.225 -0.0238  0.0978  0.0925
 1070W        W 3835   1.720   7.675   1.887 -0.1122  0.1636  0.2802
 1071W        W 3836   8.571   8.369   0.975  0.2163 -0.0704  0.0027
 1072W        W 3837   7.608   8.663   0.698  0.3609 -0.0512 -0.1619
 1073W        W 3838   3.054   7.146   0.728 -0.0119 -0.1352  0.1844
 1074W        W 3839   2.085   0.973   1.064  0.1044  0.1152  0.1580
 1075W        W 3840   7.487   4.651   0.014 -0.2626  0.2586 -0.1270
 1076W        W 3841   2.702   9.125   0.916 -0.0148  0.0307 -0.0470
 1077W        W 3842   4.414   1.341   6.957 -0.0475 -0.2703 -0.0738
 1078W        W 3843   4.640   8.793   0.503  0.2745 -0.0598  0.1693
 1079W        W 3844   7.843   2.107   0.997  0.1608 -0.0707 -0.1450
 1080W        W 3845   0.952   8.867   0.889  0.1147  0.0368 -0.2458
 1081W        W 3846   1.174   1.117   6.704 -0.0342 -0.1333 -0.2199
 1082W        W 3847   4.616   2.135   1.106  0.0849  0.0007  0.0370
 1083W        W 3848   1.354   6.564   6.746 -0.2355 -0.0404  0.0465
 1084W        W 3849   1.483   1.483   0.447  0.0129  0.1245 -0.0087
 1085W        W 3850   4.601   5.714   0.921 -0.5457 -0.0065  0.1267
 1086W        W 3851   6.827   8.867   5.741 -0.0717 -0.0640  0.0355
 1087W        W 3852   3.568   1.107   5.920 -0.2861  0.1398  0.1354
 1088W        W 3853   1.595   5.622   6.656 -0.0067 -0.0250  0.0335
 1089W        W 3854   0.005   0.728   5.984  0.1257  0.1071  0.2471
 1090W        W 3855   8.721   3.431   0.574 -0.1029 -0.2506  0.2921
 1091W        W 3856   8.130   8.826   0.088  0.2236  0.2910 -0.2128
 1092W        W 3857   7.123   4.350   6.947  0.3965  0.1357  0.2204
 1093W        W 3858   4.511   6.384   6.863 -0.1613  0.1413 -0.2931
 1094W        W 3859   3.040   8.985   6.694  0.0562 -0.1638 -0.0471
 1095W        W 3860   5.060   7.748   5.782  0.1416 -0.4277  0.1634
 1096W        W 3861   5.039   8.149   6.749  0.0141  0.1216  0.0043
 1097W        W 3862   5.183   6.672   6.843  0.0093 -0.1259 -0.2480
 1098W        W 3863   2.970   3.156   1.067 -0.1612 -0.0910  0.0149
 1099W        W 3864   0.126   6.864   6.386  0.0818  0.4404  0.0437
 1100W        W 3865   4.646   0.924   6.837 -0.1032 -0.0259  0.1527
 1101W        W 3866   7.844   5.195   0.271  0.0358  0.4177  0.1746
 1102W        W 3867   8.390   0.720   0.522  0.1427  0.1300  0.2101
 1103W        W 3868   3.464   1.557   6.225 -0.2089  0.1192 -0.1711
 1104W        W 3869   4.624   3.457   0.013 -0.0584 -0.2024 -0.0659
 1105W        W 3870   6.890   0.060   0.384  0.0455 -0.0728  0.0338
 1106W        W 3871   3.910   4.217   6.485 -0.1595  0.2851  0.0071
 1107W        W 3872   5.329   7.701   0.514 -0.1389  0.0683  0.1425
 1108W        W 3873   3.511   8.229   0.192 -0.2884  0.0746  0.4083
 1109W        W 3874   7.168   3.027   1.314 -0.2623  0.0533 -0.2232
 1110W        W 3875   1.762   6.864   0.509 -0.1454 -0.1017  0.1725
 1111W        W 3876   0.186   2.786   5.251 -0.0421  0.1033 -0.1287
 1112W        W 3877   6.912   6.236   6.556 -0.3832 -0.2197 -0.1557
 1113W        W 3878   8.777   8.360   5.859 -0.1488 -0.1415 -0.0199
 1114W        W 3879   6.511   4.186   6.842  0.4882 -0.0260 -0.0180
 1115W        W 3880   0.899   0.692   6.013 -0.1023  0.1384  0.0296
 1116W        W 3881   7.968   1.989   5.013  0.1465 -0.0229 -0.0211
 1117W        W 3882   3.980   0.315   0.068  0.0998  0.2003  0.1468
 1118W        W 3883   2.097   4.499   1.868 -0.0237  0.2709  0.0639
 1119W        W 3884   1.173   8.966   0.159  0.0492 -0.0163 -0.0635
 1120W        W 3885   1.566   6.788   5.480 -0.2724 -0.0035 -0.0898
 1121W        W 3886   6.275   7.757   0.694  0.0863 -0.1006  0.2187
 1122W        W 3887   4.062   2.484   5.259  0.1864  0.0121  0.0652
 1123W        W 3888   1.757   0.413   6.457 -0.0891  0.3450 -0.1264
 1124W        W 3889   8.747   4.947   6.926  0.1234 -0.4006  0.0379
 1125W        W 3890   5.643   7.412   7.045 -0.0055  0.3153 -0.1244
 1126W        W 3891   8.304   5.086   0.229  0.1165  0.0746 -0.0998
 1127W        W 3892   0.955   5.313   0.025 -0.0733  0.2792  0.0782
 1128W        W 3893   5.838   2.989   6.861 -0.3464  0.1282  0.0445
 1129W        W 3894   5.254   4.040   6.121 -0.3183 -0.4209  0.2937
 1130W        W 3895   4.728   6.366   0.258 -0.1490 -0.0451  0.1274
 1131W        W 3896   2.844   7.520   6.412  0.3849  0.0128  0.0916
 1132W        W 3897   8.884   7.378   5.803 -0.5952  0.0181  0.0304
 1133W        W 3898   7.960   6.697   6.645 -0.2552 -0.0085 -0.1014
 1134W        W 3899   8.650   6.620   5.406 -0.1385 -0.2943 -0.1644
 1135W        W 3900   1.226   4.931   0.135  0.0272 -0.1287 -0.0956
 1136W        W 3901   7.517   6.299   5.819 -0.2044 -0.0531 -0.0583
 1137W        W 3902   8.943   4.499   5.832  0.1063  0.0348 -0.0757
 1138W        W 3903   7.202   7.930   0.939  0.3700 -0.0084 -0.0857
 1139W        W 3904   0.216   0.593   6.845 -0.0368  0.1951  0.3100
 1140W        W 3905   1.537   6.513   1.292  0.1112  0.1242  0.1255
 1141W        W 3906   2.816   3.102   4.893 -0.0259 -0.1762  0.2232
 1142W        W 3907   5.040   5.356   0.145  0.2842 -0.0107 -0.1041
 1143W        W 3908   9.024   3.174   0.262 -0.4530 -0.0337 -0.0556
 1144W        W 3909   1.936   8.909   6.713 -0.0681 -0.2205 -0.2225
 1145W        W 3910   5.457   7.605   1.278  0.1047  0.0359  0.1371
 1146W        W 3911   7.773   4.230   0.250 -0.2310  0.2926  0.0310
 1147W        W 3912   5.112   8.557   1.291 -0.0615  0.0434  0.1197
 1148W        W 3913   7.347   7.806   6.384  0.1442  0.0780 -0.2114
 1149W        W 3914   3.750   8.463   6.375  0.2422  0.1573 -0.2294
 1150W        W 3915   4.012   7.915   6.243  0.3237 -0.1989 -0.0311
 1151W        W 3916   3.556   7.326   0.698  0.1712  0.0682 -0.0224
 1152W        W 3917   2.124   4.766   6.762  0.1335 -0.0885  0.1217
 1153W        W 3918   6.367   8.827   6.048  0.0510 -0.2172  0.1615
 1154W        W 3919   1.601   4.956   0.554  0.5264  0.0840  0.0875
 1155W        W 3920   4.606   2.835   6.188  0.0678 -0.1126 -0.1226
 1156W        W 3921   1.590   0.893   1.016  0.0298  0.0422  0.0839
 1157W        W 3922   8.991   7.237   0.443  0.2005  0.1180 -0.0126
 1158W        W 3923   1.518   6.584   0.819 -0.1603  0.0765 -0.0510
 1159W        W 3924   0.080   6.542   6.791 -0.0300  0.0090 -0.1077
 1160W        W 3925   1.203   0.237   6.286  0.0724 -0.1255 -0.1539
 1161W        W 3926   0.276   6.612   1.409 -0.1819 -0.0892 -0.0603
 1162W        W 3927   0.091   2.618   6.256  0.1317 -0.2519 -0.1418
 1163W        W 3928   4.513   7.026   0.997 -0.1602 -0.1462  0.0272
 1164W        W 3929   0.798   0.524   6.521 -0.0043 -0.0599 -0.1164
 1165W        W 3930   2.359   6.277   6.991 -0.0630  0.0335  0.1921
 1166W        W 3931   6.246   0.799   6.888  0.0849 -0.1897 -0.1706
 1167W        W 3932   6.859   7.723   6.379  0.1877 -0.1142  0.4503
 1168W        W 3933   3.233   8.460   1.575  0.1710 -0.1291 -0.5058
 1169W        W 3934   2.215   0.023   1.206 -0.3984  0.2597 -0.1159
 1170W        W 3935   6.044   1.591   0.217  0.1153  0.2104  0.1346
 1171W        W 3936   3.115   7.677   0.816  0.1519 -0.2235 -0.1537
 1172W        W 3937   7.551   2.484   0.816 -0.2565 -0.2067  0.0913
 1173W        W 3938   6.492   1.907   0.941  0.0383  0.1053  0.0978
 1174W        W 3939   3.614   5.093   6.178  0.2659  0.0329  0.2539
 1175W        W 3940   8.378   0.426   5.493  0.1115  0.0618  0.2321
 1176W        W 3941   2.452   1.459   0.067 -0.4379 -0.0805  0.1772
 1177W        W 3942   4.941   6.484   5.891 -0.0492  0.2811  0.1036
 1178W        W 3943   5.799   5.471   0.582 -0.0670  0.1840 -0.0869
 1179W        W 3944   0.885   8.314   6.695  0.2046 -0.2251 -0.0354
 1180W        W 3945   0.765   5.862   5.689 -0.0508 -0.1447 -0.2553
 1181W        W 3946   1.001   3.590   6.395  0.1424  0.1899 -0.0545
 1182W        W 3947   5.691   8.841   0.076  0.2169  0.3603 -0.2130
 1183W        W 3948   5.107   7.268   5.844  0.1335 -0.0871  0.1420
 1184W        W 3949   2.260   5.521   0.824 -0.2300 -0.4532 -0.1756
 1185W        W 3950   0.572   2.243   1.728 -0.1437 -0.0244  0.1579
 1186W        W 3951   8.294   0.277   0.649  0.0679 -0.2410 -0.1012
 1187W        W 3952   1.990   7.290   6.270 -0.1593 -0.1497  0.0128
 1188W        W 3953   3.393   3.370   5.077  0.0010  0.2026 -0.2646
 1189W        W 3954   3.739   4.425   1.605  0.0612  0.1246 -0.0769
 1190W        W 3955   1.193   4.836   0.813  0.1017  0.1531  0.0092
 1191W        W 3956   2.280   5.955   1.189 -0.0310 -0.1025 -0.2601
 1192W        W 3957   6.905   7.137   6.776 -0.0303 -0.1400 -0.0302
 1193W        W 3958   6.134   0.015   6.377  0.0736 -0.0207 -0.1027
 1194W        W 3959   0.168   1.254   6.061  0.1453  0.0806  0.1215
 1195W        W 3960   8.832   4.806   0.846 -0.0672 -0.3426 -0.0913
 1196W        W 3961   0.025   5.795   1.145 -0.2019 -0.0976  0.0507
 1197W        W 3962   0.537   0.984   6.253  0.1201 -0.0463  0.0095
 1198W        W 3963   3.475   8.615   6.749 -0.2553 -0.2950 -0.5580
 1199W        W 3964   3.729   2.863   0.846 -0.0439  0.1376  0.2877
 1200W        W 3965   0.462   7.486   1.118  0.2224  0.4942  0.4041
 1201W        W 3966   2.678   7.712   5.649  0.0304  0.0694 -0.3138
 1202W        W 3967   5.775   4.278   1.024  0.0351  0.2321  0.0637
 1203W        W 3968   8.544   0.792   5.145 -0.0900  0.2252  0.2508
 1204W        W 3969   8.171   8.825   6.113 -0.0534 -0.0407  0.1580
 1205W        W 3970   1.385   7.258   5.288 -0.3788 -0.0036 -0.3366
 1206W        W 3971   4.776   5.245   0.988 -0.5424 -0.0302  0.1293
 1207W        W 3972   0.249   8.851   4.798 -0.0980  0.4487  0.2312
 1208W        W 3973   5.321   0.922   0.273 -0.0398 -0.2663 -0.3515
 1209W        W 3974   2.000   8.453   7.050 -0.0622 -0.0350  0.0258
 1210W        W 3975   1.984   1.754   6.088  0.0014 -0.0363  0.0899
 1211W        W 3976   1.041   0.127   6.822  0.0247 -0.0306 -0.0985
 1212W        W 3977   1.421   5.237   0.958 -0.1281 -0.1393 -0.0831
 1213W        W 3978   4.806   8.876   1.027 -0.3336 -0.0171  0.1266
 1214W        W 3979   7.966   3.862   6.917 -0.0399  0.1950 -0.1623
 1215W        W 3980   8.203   0.797   0.095 -0.0822  0.0718  0.0622
 1216W        W 3981   7.670   5.729   6.846 -0.0460  0.1479 -0.0806
 1217W        W 3982   6.863   5.746   0.203  0.0497 -0.2641 -0.1415
 1218W        W 3983   7.283   1.615   0.197 -0.2708 -0.0824  0.0225
 1219W        W 3984   5.519   5.100   5.728 -0.0880  0.0684  0.3432
 1220W        W 3985   1.755   1.880   6.515 -0.4011 -0.0410 -0.0725
 1221W        W 3986   6.144   1.801   6.783  0.0620 -0.1825  0.0177
 1222W        W 3987   8.362   2.188   1.904 -0.1502 -0.1129  0.1102
 1223W        W 3988   8.562   3.403   1.105 -0.0569 -0.1458 -0.0446
 1224W        W 3989   2.608   8.452   0.890 -0.1640 -0.1132  0.2619
 1225W        W 3990   8.334   1.665   6.990  0.1634  0.3703 -0.0799
 1226W        W 3991   5.944   3.478   0.043  0.3701  0.3441  0.0975
 1227W        W 3992   8.682   2.012   5.727  0.3590 -0.1298  0.2538
 1228W        W 3993   6.271   2.051   0.132  0.6095  0.1041  0.0724
 1229W        W 3994   0.568   6.919   1.929  0.0217  0.2386  0.3700
 1230W        W 3995   8.854   0.276   1.784 -0.2284  0.1976 -0.3551
 1231W        W 3996   4.509   5.716   1.462 -0.0283  0.1368 -0.0216
 1232W        W 3997   4.709   3.912   6.921 -0.0034  0.1718  0.0316
 1233W        W 3998   5.363   1.161   0.724 -0.0398  0.3198 -0.1610
 1234W        W 3999   2.607   0.083   6.858 -0.4642  0.1787  0.1020
 1235W        W 4000   3.899   7.370   6.330  0.0158 -0.0246 -0.1792
 1236W        W 4001   2.548   8.548   1.758  0.3684  0.0406  0.1653
 1237W        W 4002   4.758   0.228   6.361  0.2876  0.0733 -0.1195
 1238W        W 4003   1.760   5.194   1.417 -0.0178 -0.0801 -0.0435
 1239W        W 4004   5.685   8.357   5.653 -0.2079  0.0906 -0.0079
 1240W        W 4005   5.608   6.898   0.135  0.3312 -0.3398 -0.1186
 1241W        W 4006   4.609   7.881   1.341  0.0963 -0.1127 -0.1008
 1242W        W 4007   5.503   1.293   7.015  0.0247  0.0658  0.0615
 1243W        W 4008   7.350   6.966   7.013 -0.0064 -0.4330 -0.1801
 1244W        W 4009   5.217   8.508   1.755  0.0772 -0.0674  0.1031
 1245W        W 4010   2.586   5.945   1.955 -0.4986  0.1474  0.0574
 1246W        W 4011   9.035   6.190   1.493  0.1974  0.0553 -0.0908
 1247W        W 4012   2.867   6.443   6.023 -0.2651 -0.2179  0.1765
 1248W        W 4013   0.253   8.860   0.768 -0.0382  0.1791 -0.2788
 1249W        W 4014   6.240   4.065   0.269  0.0367  0.0788 -0.0658
 1250W        W 4015   2.116   3.521   1.146 -0.1413  0.0034  0.1421
 1251W        W 4016   1.364   3.908   6.580 -0.0976  0.0728 -0.1591
 1252W        W 4017   0.639   1.041   5.657 -0.2311  0.1840 -0.0949
 1253W        W 4018   0.550   3.934   1.072 -0.1044 -0.2468  0.0697
 1254W        W 4019   2.102   8.347   0.861 -0.2276  0.2325 -0.0121
 1255W        W 4020   1.613   3.181   6.105 -0.3182  0.0691 -0.0668
 1256W        W 4021   7.578   5.145   6.914  0.0709  0.1953  0.2808
 1257W        W 4022   0.112   2.050   0.958  0.0440 -0.2368  0.1539
 1258W        W 4023   9.088   3.676   0.223 -0.1391  0.2873  0.0950
 1259W        W 4024   7.884   6.100   6.544  0.0320 -0.0632 -0.0463
 1260W        W 4025   6.609   7.391   0.593  0.0095  0.0050 -0.2034
 1261W        W 4026   1.439   3.219   5.620 -0.0035 -0.3368 -0.0015
 1262W        W 4027   6.488   6.473   6.287 -0.0342 -0.1885 -0.4703
 1263W        W 4028   4.787   7.514   6.252 -0.0464 -0.1728  0.1926
 1264W        W 4029   6.647   2.154   0.470  0.2250 -0.2940 -0.2743
 1265W        W 4030   4.231   3.320   6.233  0.0688 -0.0139 -0.0653
 1266W        W 4031   0.202   7.452   5.113 -0.3114  0.0840  0.1415
 1267W        W 4032   5.571   8.299   5.177 -0.0720 -0.1552 -0.0468
 1268W        W 4033   3.658   2.470   6.559 -0.1458 -0.0551 -0.1426
 1269W        W 4034   6.858   2.726   1.053  0.1404  0.3362  0.1531
 1270W        W 4035   5.590   6.996   5.748  0.0461 -0.0149  0.0222
 1271W        W 4036   7.548   7.414   6.625  0.1985 -0.1757  0.1146
 1272W        W 4037   7.439   4.408   6.562 -0.3724  0.1652  0.0928
 1273W        W 4038   0.514   0.208   5.594  0.1868 -0.1273  0.3490
 1274W        W 4039   5.302   7.446   6.266 -0.1528  0.2588 -0.0567
 1275W        W 4040   4.826   0.047   6.872  0.1766 -0.2232 -0.2448
 1276W        W 4041   3.414   3.348   6.848 -0.3513 -0.1679  0.1451
 1277W        W 4042   2.886   1.352   1.079 -0.3119 -0.2251  0.1414
 1278W        W 4043   2.450   4.530   1.393  0.0497  0.0703 -0.0921
 1279W        W 4044   1.700   3.518   5.198  0.0576  0.0093  0.1508
 1280W        W 4045   1.266   1.057   5.198  0.0345  0.1553  0.1093
 1281W        W 4046   3.726   8.646   0.267 -0.2907  0.2814  0.3765
 1282W        W 4047   7.996   6.372   6.110 -0.1698 -0.1584 -0.1893
 1283W        W 4048   5.011   1.006   5.812  0.0316 -0.0751  0.0387
 1284W        W 4049   4.904   5.230   6.352  0.5267  0.0679  0.0612
 1285W        W 4050   5.137   2.906   0.454  0.1860  0.1658  0.2432
 1286W        W 4051   0.182   1.837   0.516  0.4592  0.0989 -0.1923
 1287W        W 4052   2.587   0.356   5.977  0.3124 -0.0477 -0.2928
 1288W        W 4053   4.364   4.203   6.744 -0.0487 -0.3608  0.0031
 1289W        W 4054   6.512   7.270   1.128 -0.1968  0.1655  0.1504
 1290W        W 4055   3.703   3.796   6.892  0.2685 -0.0959  0.2633
 1291W        W 4056   2.474   7.374   6.027  0.2830 -0.2504 -0.0597
 1292W        W 4057   6.179   7.281   0.644  0.0378 -0.0972  0.1865
 1293W        W 4058   3.203   6.745   7.014  0.3034  0.2165  0.2955
 1294W        W 4059   7.619   1.860   5.415  0.2879 -0.4230  0.1099
 1295W        W 4060   6.243   8.907   6.946 -0.0382 -0.0334 -0.0713
 1296W        W 4061   0.260   4.644   6.996  0.1838  0.0234 -0.1988
 1297W        W 4062   1.122   2.669   1.144 -0.0740  0.2164  0.0299
 1298W        W 4063   3.460   6.450   1.382  0.2327 -0.0150 -0.0480
 1299W        W 4064   0.905   5.379   2.271  0.0053 -0.3183 -0.0875
 1300W        W 4065   7.537   0.347   5.911  0.1892 -0.0415  0.1028
 1301W        W 4066   6.807   7.715   0.194  0.3868  0.1607  0.0655
 1302W        W 4067   7.305   4.092   0.235  0.1782  0.2316  0.2149
 1303W        W 4068   0.884   8.377   0.932 -0.1708  0.0083  0.0261
 1304W        W 4069   4.248   3.700   6.811 -0.0090  0.2259  0.1949
 1305W        W 4070   2.957   1.067   1.524  0.1350  0.2625  0.2535
 1306W        W 4071   1.213   7.879   6.540 -0.3215  0.0664 -0.1870
 1307W        W 4072   0.059   7.052   0.878  0.1522  0.0057 -0.4208
 1308W        W 4073   1.402   2.464   0.627 -0.0118  0.1248 -0.1549
 1309W        W 4074   6.186   5.619   6.527  0.3672 -0.0041 -0.0220
 1310W        W 4075   5.693   6.173   6.150  0.0915  0.2370  0.3207
 1311W        W 4076   0.419   4.298   1.920  0.0173 -0.1310 -0.0606
 1312W        W 4077   5.954   7.929   6.917  0.1981  0.1244 -0.1052
 1313W        W 4078   6.023   0.448   0.802  0.3987 -0.1146  0.0129
 1314W        W 4079   2.020   0.534   6.059 -0.1492  0.0369  0.2388
 1315W        W 4080   2.846   4.510   0.836  0.0229 -0.1300  0.0391
 1316W        W 4081   7.065   2.960   6.818  0.0575  0.0544  0.1247
 1317W        W 4082   7.285   5.177   0.252 -0.1794  0.2475  0.1469
 1318W        W 4083   1.601   8.348   0.939 -0.2733 -0.0383  0.3001
 1319W        W 4084   3.948   7.364   0.383 -0.2529  0.2791  0.1160
 1320W        W 4085   3.588   2.577   6.095  0.2596 -0.3467  0.0943
 1321W        W 4086   6.019   5.043   0.844 -0.0119 -0.0101  0.1132
 1322W        W 4087   4.891   8.780   5.144 -0.2778 -0.0406  0.4322
 1323W        W 4088   8.181   2.954   4.926  0.0027 -0.0833  0.0458
 1324W        W 4089   1.197   3.140   1.971  0.0768  0.0521  0.1516
 1325W        W 4090   5.304   5.750   6.992  0.0451 -0.0100  0.0130
 1326W        W 4091   7.603   7.707   0.546 -0.1500 -0.0713  0.2323
 1327W        W 4092   7.782   2.803   1.539 -0.1625  0.3416  0.0973
 1328W        W 4093   2.397   2.453   0.550 -0.1241 -0.1279 -0.0727
 1329W        W 4094   7.311   6.604   0.443 -0.0979  0.0806 -0.0209
 1330W        W 4095   4.974   8.695   6.744  0.0191 -0.0859  0.0641
 1331W        W 4096   3.980   6.494   6.212 -0.1925 -0.0590 -0.1374
 1332W        W 4097   8.264   8.564   6.730 -0.0075 -0.4522  0.3470
 1333W        W 4098   4.429   3.070   1.310  0.0460  0.2024 -0.1699
 1334W        W 4099   5.636   4.043   6.474  0.0097 -0.2138  0.0343
 1335W        W 4100   1.113   3.982   0.376  0.0361  0.0293  0.1997
 1336W        W 4101   8.195   2.081   0.558 -0.0531 -0.0611  0.1332
 1337W        W 4102   8.417   6.432   2.130  0.0125 -0.0833  0.4126
 1338W        W 4103   4.266   3.100   0.045  0.0615 -0.3494  0.1883
 1339W        W 4104   0.466   0.797   1.404  0.2650 -0.1591 -0.0952
 1340W        W 4105   2.436   2.332   5.438 -0.0767 -0.0948  0.1087
 1341W        W 4106   7.895   1.339   1.023 -0.0004  0.1197  0.1546
 1342W        W 4107   8.548   3.301   5.152 -0.1513  0.0650  0.1949
 1343W        W 4108   5.152   4.754   0.717  0.1170  0.3595  0.1341
 1344W        W 4109   0.546   4.578   0.466  0.0379  0.2350  0.1379
 1345W        W 4110   3.991   8.316   5.969  0.3973  0.1362 -0.0271
 1346W        W 4111   6.831   3.418   7.019  0.3163  0.0130  0.2011
 1347W        W 4112   8.243   5.872   0.919  0.0585  0.0380  0.1118
 1348W        W 4113   8.725   6.118   0.963 -0.0554 -0.1351 -0.3133
 1349W        W 4114   5.503   6.009   0.834  0.3298  0.0785 -0.1230
 1350W        W 4115   8.654   2.737   6.301 -0.3832 -0.1637  0.0827
 1351W        W 4116   0.142   0.622   1.065 -0.0514  0.1372  0.1265
 1352W        W 4117   3.714   3.496   5.964  0.0822 -0.1342 -0.2115
 1353W        W 4118   0.190   1.035   6.562  0.1926  0.0737 -0.0553
 1354W        W 4119   2.996   8.282   5.991 -0.3626 -0.0659 -0.1850
 1355W        W 4120   4.040   1.575   0.151 -0.0054  0.0243 -0.1895
 1356W        W 4121   6.051   0.720   5.545  0.0474 -0.0876  0.1467
 1357W        W 4122   8.319   1.741   5.491 -0.1761  0.1548 -0.3264
 1358W        W 4123   1.152   2.805   5.453  0.0026  0.2644 -0.2987
 1359W        W 4124   7.026   6.909   1.802 -0.1406  0.1091  0.2717
 1360W        W 4125   0.514   7.304   0.668  0.1506 -0.0792  0.2395
 1361W        W 4126   3.783   6.297   0.916  0.2324  0.2587  0.0385
 1362W        W 4127   6.788   0.370   5.025  0.3118 -0.3177  0.0371
 1363W        W 4128   2.341   2.493   6.300 -0.0198 -0.1275 -0.2947
 1364W        W 4129   8.460   2.089   6.716  0.2109  0.1254  0.1290
 1365W        W 4130   1.653   0.452   2.051  0.1325  0.2247  0.2844
 1366W        W 4131   0.633   8.910   7.013  0.1541  0.3635 -0.1909
 1367W        W 4132   7.254   8.613   0.134  0.1389 -0.0258 -0.2269
 1368W        W 4133   2.198   0.722   1.552  0.1895  0.0102  0.1074
 1369W        W 4134   8.682   1.784   2.124 -0.0011  0.1274  0.0989
 1370W        W 4135   4.890   5.445   0.573 -0.1729 -0.0206  0.0816
 1371W        W 4136   6.030   1.240   5.480 -0.5868  0.0419  0.3481
 1372W        W 4137   2.245   8.851   0.750  0.1040 -0.1645 -0.5321
 1373W        W 4138   1.079   6.529   0.615 -0.0575 -0.2428 -0.1428
 1374W        W 4139   7.519   6.323   6.305 -0.3180  0.2080  0.3961
 1375W        W 4140   1.638   0.605   1.570  0.1623  0.0294  0.0821
 1376W        W 4141   4.802   2.376   6.285  0.4678 -0.0693  0.1174
 1377W        W 4142   4.101   5.013   6.101  0.0311 -0.0873  0.1515
 1378W        W 4143   5.166   6.782   5.586 -0.0465  0.1973  0.3252
 1379W        W 4144   4.273   7.508   6.104  0.0627 -0.0749 -0.2112
 1380W        W 4145   4.513   6.123   0.683 -0.0970 -0.3845  0.1774
 1381W        W 4146   7.884   7.897   5.776  0.0923  0.1932 -0.1102
 1382W        W 4147   0.847   4.449   0.947 -0.0183  0.0988 -0.0939
 1383W        W 4148   0.354   0.548   6.389  0.0043 -0.0097 -0.2980
 1384W        W 4149   2.143   6.798   0.013 -0.1810 -0.1049 -0.0400
 1385W        W 4150   7.598   5.547   0.581 -0.2194 -0.1763  0.0063
 1386W        W 4151   8.929   4.868   6.204  0.1356 -0.0482  0.1377
 1387W        W 4152   4.296   3.901   6.288 -0.1974 -0.2244  0.1262
 1388W        W 4153   6.462   4.884   0.096 -0.4474 -0.1936  0.2713
 1389W        W 4154   8.444   1.531   5.923  0.1840  0.0567  0.2386
 1390W        W 4155   8.088   7.668   0.696 -0.0336 -0.0040 -0.1073
 1391W        W 4156   3.710   4.443   5.594 -0.2130  0.2184  0.0441
 1392W        W 4157   0.769   4.684   0.037 -0.2303 -0.2575  0.1265
 1393W        W 4158   5.369   7.302   0.890  0.1861 -0.2313 -0.0948
 1394W        W 4159   2.844   6.563   5.508 -0.2633 -0.0657  0.3581
 1395W        W 4160   7.998   2.587   6.777  0.1958  0.1333  0.1891
 1396W        W 4161   7.233   7.411   0.195 -0.2120 -0.0848  0.1143
 1397W        W 4162   8.651   1.923   0.197 -0.1264 -0.0293  0.2981
 1398W        W 4163   1.204   2.176   1.005 -0.0371 -0.4206 -0.2604
 1399W        W 4164   5.243   8.982   7.037 -0.1100  0.0695 -0.0119
 1400W        W 4165   6.116   2.747   0.552  0.0186  0.0158 -0.1013
 1401W        W 4166   8.723   5.901   6.399 -0.1019 -0.0369  0.0478
 1402W        W 4167   0.477   7.936   6.284  0.2254 -0.0527 -0.0178
 1403W        W 4168   1.180   0.836   1.410  0.0734 -0.5099  0.1730
 1404W        W 4169   7.583   7.374   5.123 -0.1425  0.2532  0.3939
 1405W        W 4170   1.920   2.250   6.146 -0.0002  0.0566 -0.2216
 1406W        W 4171   4.007   0.269   5.196 -0.0041  0.1506 -0.1066
 1407W        W 4172   3.232   2.211   1.411 -0.0829  0.2879 -0.1344
 1408W        W 4173   7.147   4.044   5.544 -0.0192  0.0098  0.0260
 1409W        W 4174   2.249   1.093   0.302 -0.1871 -0.1137  0.2592
 1410W        W 4175   3.874   8.511   5.540 -0.0802 -0.0244 -0.2641
 1411W        W 4176   0.388   6.305   5.690  0.2498 -0.0506 -0.1318
 1412W        W 4177   6.618   7.168   6.288  0.0135 -0.1898 -0.1033
 1413W        W 4178   1.131   0.320   1.657  0.1472  0.0240  0.1908
 1414W        W 4179   3.517   5.291   6.779  0.0687 -0.2143 -0.1799
 1415W        W 4180   5.422   2.476   0.531  0.0552  0.1777 -0.1714
 1416W        W 4181   1.715   8.562   6.370 -0.1493 -0.3357  0.1449
 1417W        W 4182   1.394   0.603   5.997  0.0748 -0.1524  0.1500
 1418W        W 4183   8.328   4.902   1.302 -0.0506  0.1363  0.3347
 1419W        W 4184   4.669   3.269   5.958 -0.0513 -0.1911 -0.2811
 1420W        W 4185   7.117   7.311   6.330  0.0341 -0.0162 -0.1059
 1421W        W 4186   7.981   0.846   6.334  0.2320  0.1319  0.3099
 1422W        W 4187   7.008   7.287   4.919 -0.0715  0.0850  0.2928
 1423W        W 4188   3.627   2.129   5.912  0.1175 -0.1549 -0.2227
 1424W        W 4189   6.737   3.865   6.204 -0.0107 -0.0697 -0.4705
 1425W        W 4190   0.836   6.732   5.935  0.1282 -0.1097  0.0747
 1426W        W 4191   2.365   6.567   6.581 -0.1571 -0.0965  0.2448
 1427W        W 4192   2.800   2.713   6.461  0.2558 -0.1031  0.1732
 1428W        W 4193   1.616   4.496   0.326 -0.0386 -0.1463 -0.0761
 1429W        W 4194   7.148   1.305   0.655 -0.2390 -0.2105 -0.0772
 1430W        W 4195   6.194   0.277   6.997  0.0373 -0.1290 -0.2271
 1431W        W 4196   6.980   2.012   6.374  0.0449 -0.3165  0.0140
 1432W        W 4197   3.665   2.440   1.131  0.0709 -0.0150  0.2655
 1433W        W 4198   5.063   0.641   6.167  0.2026  0.0789  0.0979
 1434W        W 4199   8.043   2.790   2.053  0.1117  0.2234 -0.0547
 1435W        W 4200   4.738   0.472   1.023  0.2902  0.0515 -0.2288
 1436W        W 4201   1.333   1.659   6.702 -0.0889 -0.0966  0.2066
 1437W        W 4202   6.303   7.601   0.168  0.1562  0.3854 -0.0733
 1438W        W 4203   7.343   0.652   1.809 -0.2242  0.1508  0.0198
 1439W        W 4204   4.335   2.148   6.575  0.0949 -0.1551  0.0241
 1440W        W 4205   5.059   3.357   0.303 -0.1840 -0.0184  0.1914
 1441W        W 4206   0.421   2.253   0.614  0.4644 -0.0524  0.1512
 1442W        W 4207   7.157   1.625   1.853 -0.0987 -0.2901 -0.1188
 1443W        W 4208   0.941   3.804   5.859 -0.1302  0.1571 -0.0895
 1444W        W 4209   6.683   4.268   5.410 -0.0538  0.2168  0.0841
 1445W        W 4210   2.603   0.661   6.736  0.1924  0.0596 -0.0381
 1446W        W 4211   5.423   3.260   0.001 -0.2139  0.0820  0.0086
 1447W        W 4212   4.036   0.024   5.820  0.2555  0.2170  0.5747
 1448W        W 4213   8.149   4.090   6.369 -0.3029  0.2654 -0.2169
 1449W        W 4214   7.733   6.869   1.181 -0.0894  0.0841 -0.0742
 1450W        W 4215   2.455   8.106   0.015 -0.1794 -0.0947 -0.1138
 1451W        W 4216   3.616   7.390   0.034 -0.1195 -0.2913  0.1348
 1452W        W 4217   1.303   0.651   0.522  0.0737 -0.0607 -0.2435
 1453W        W 4218   3.017   8.369   5.197  0.0782  0.0502 -0.1572
 1454W        W 4219   0.581   8.257   5.860  0.1457  0.3428  0.2387
 1455W        W 4220   5.005   1.441   5.023 -0.1530  0.2283  0.3379
 1456W        W 4221   8.217   6.865   1.360 -0.2862  0.1221 -0.0775
 1457W        W 4222   8.187   4.621   6.506  0.2927  0.1413 -0.1153
 1458W        W 4223   6.247   2.124   6.045  0.0047  0.0288 -0.2715
 1459W        W 4224   6.142   0.175   5.841  0.1422 -0.0668 -0.1873
 1460W        W 4225   7.029   7.604   5.920  0.2244  0.1470 -0.1082
 1461W        W 4226   2.229   4.509   6.335  0.0455 -0.2712 -0.0711
 1462W        W 4227   4.722   2.971   0.120  0.1599 -0.0886  0.0111
 1463W        W 4228   6.349   6.684   0.172 -0.3039 -0.0839  0.2907
 1464W        W 4229   2.583   1.486   1.482 -0.3827  0.0630  0.2432
 1465W        W 4230   3.319   4.183   5.838  0.0449 -0.0483  0.1416
 1466W        W 4231   8.153   8.056   0.976 -0.0743  0.2008  0.0578
 1467W        W 4232   6.445   2.370   5.679  0.2118 -0.2217  0.2774
 1468W        W 4233   6.998   5.561   1.085  0.1945 -0.0695  0.2220
 1469W        W 4234   6.187   5.506   0.905 -0.3854  0.0075 -0.3480
 1470W        W 4235   8.860   8.812   1.100 -0.0331 -0.1711 -0.1460
 1471W        W 4236   5.775   5.581   5.548 -0.1755 -0.0128 -0.0706
 1472W        W 4237   4.021   2.321   6.225 -0.0150 -0.1125 -0.2326
 1473W        W 4238   8.328   3.587   6.638  0.0164 -0.2563 -0.0456
 1474W        W 4239   8.413   4.026   1.065 -0.1146  0.2760  0.1579
 1475W        W 4240   1.498   0.233   6.878  0.2107  0.1243  0.1899
 1476W        W 4241   3.706   2.942   1.985 -0.0612  0.4218  0.2590
 1477W        W 4242   7.266   4.245   6.048  0.0349  0.0923  0.0651
 1478W        W 4243   0.283   9.135   6.187 -0.0083 -0.0100  0.2974
 1479W        W 4244   1.389   5.023   6.753 -0.1979  0.1181 -0.0782
 1480W        W 4245   0.044   1.960   5.530 -0.1240 -0.0415  0.0302
 1481W        W 4246   7.324   0.613   1.234  0.0805  0.0234  0.2101
 1482W        W 4247   8.780   3.596   6.120  0.1302 -0.0302  0.1480
 1483W        W 4248   4.285   4.515   0.117 -0.0868 -0.1963  0.1742
 1484W        W 4249   2.008   5.416   0.128  0.0104 -0.1632  0.0193
 1485W        W 4250   2.191   1.131   6.877  0.0780  0.2271  0.0678
 1486W        W 4251   3.884   6.680   4.959  0.0188 -0.4131  0.1597
 1487W        W 4252   8.550   6.071   1.799  0.1244  0.0488 -0.0721
 1488W        W 4253   2.659   7.938   6.147  0.1478 -0.1323  0.1991
 1489W        W 4254   0.864   3.995   6.668 -0.0973  0.0729 -0.2250
 1490W        W 4255   5.949   3.087   5.174  0.2659 -0.2376  0.0519
 1491W        W 4256   3.419   3.358   6.336  0.1165 -0.0436 -0.3243
 1492W        W 4257   9.083   4.657   0.466 -0.1269 -0.0013 -0.1920
 1493W        W 4258   2.821   6.357   0.180 -0.0525 -0.1001 -0.3537
 1494W        W 4259   4.369   4.008   0.150 -0.5154  0.0391 -0.2374
 1495W        W 4260   1.286   1.801   0.101 -0.1526  0.1913 -0.0538
 1496W        W 4261   6.819   8.793   6.237 -0.1229 -0.1210  0.1502
 1497W        W 4262   5.323   4.766   6.072  0.1908 -0.0332 -0.1736
 1498W        W 4263   4.267   6.526   1.042  0.1134 -0.0987  0.1940
 1499W        W 4264   6.619   1.916   5.619 -0.0316 -0.1285 -0.0673
 1500W        W 4265   2.322   5.800   0.203 -0.0259 -0.2474  0.0160
 1501W        W 4266   7.942   4.236   1.851 -0.0403 -0.1188  0.1523
 1502W        W 4267   0.735   7.904   1.241 -0.2144  0.0388  0.1814
 1503W        W 4268   8.292   1.207   6.651  0.2413  0.2089 -0.0642
 1504W        W 4269   0.147   4.005   0.620  0.1750  0.3075  0.1132
 1505W        W 4270   3.438   6.140   1.819 -0.1551  0.0472 -0.1433
 1506W        W 4271   6.163   3.030   5.648  0.0125 -0.1977 -0.2380
 1507W        W 4272   3.505   3.051   5.903 -0.3454 -0.1252  0.0337
 1508W        W 4273   8.577   2.193   2.451 -0.2026  0.1508  0.0518
 1509W        W 4274   1.881   0.971   1.910 -0.0533 -0.1440  0.0327
 1510W        W 4275   0.415   5.211   1.819  0.0490  0.3856  0.0642
 1511W        W 4276   0.076   8.479   0.004 -0.1620  0.1404  0.0834
 1512W        W 4277   6.633   0.204   6.133  0.0595  0.0381 -0.3271
 1513W        W 4278   5.551   3.025   0.704  0.1564 -0.1975  0.0165
 1514W        W 4279   7.278   6.837   1.360  0.4619 -0.3431  0.4156
 1515W        W 4280   5.441   0.995   6.143  0.1485  0.2426  0.3681
 1516W        W 4281   2.887   8.400   6.475 -0.1190  0.2951 -0.0267
 1517W        W 4282   1.605   3.120   0.542 -0.3454 -0.2615  0.1196
 1518W        W 4283   2.221   2.610   5.780  0.2491 -0.3614 -0.3864
 1519W        W 4284   2.275   7.284   7.004  0.1473 -0.1730 -0.1857
 1520W        W 4285   9.108   3.575   1.000 -0.0382 -0.0770  0.0311
 1521W        W 4286   4.336   8.406   6.479 -0.3906  0.0171  0.1311
 1522W        W 4287   2.326   3.812   5.781 -0.0087 -0.0579  0.0739
 1523W        W 4288   6.804   8.244   0.317 -0.2021 -0.2035 -0.0176
 1524W        W 4289   5.804   2.125   5.663  0.1767  0.1848 -0.0935
 1525W        W 4290   5.765   7.951   1.364 -0.1834 -0.2966 -0.4569
 1526W        W 4291   7.989   3.654   6.042 -0.4220 -0.1335  0.1303
 1527W        W 4292   0.658   2.588   0.295 -0.3077 -0.1516  0.0797
 1528W        W 4293   4.222   1.679   6.601  0.1316  0.0768  0.0005
 1529W        W 4294   0.899   5.753   1.304 -0.1473 -0.0426 -0.0517
 1530W        W 4295   1.011   6.660   0.071 -0.0240 -0.4453 -0.0692
 1531W        W 4296   9.053   3.367   1.497  0.0577 -0.2212 -0.4300
 1532W        W 4297   0.192   5.314   1.164  0.1486 -0.0097 -0.0806
 1533W        W 4298   5.234   7.231   0.362 -0.3388  0.2770 -0.0101
 1534W        W 4299   6.658   1.082   0.654 -0.0177 -0.2659  0.1220
 1535W        W 4300   9.067   2.966   1.855  0.0418  0.3335  0.0551
 1536W        W 4301   7.247   1.188   4.988  0.1374 -0.0185 -0.2130
 1537W        W 4302   8.259   4.591   1.731 -0.1654 -0.0616 -0.2249
 1538W        W 4303   4.978   3.633   6.004 -0.0093 -0.0759  0.1546
 1539W        W 4304   8.937   0.569   5.458  0.0293  0.1799 -0.0675
 1540W        W 4305   5.243   0.684   0.936 -0.1157  0.1001 -0.2170
 1541W        W 4306   5.430   8.383   6.920  0.1320 -0.2160  0.0102
 1542W        W 4307   0.796   1.016   0.544  0.1625 -0.0130 -0.1961
 1543W        W 4308   0.274   7.927   0.931  0.0041 -0.2960  0.0645
 1544W        W 4309   2.711   1.551   5.753  0.1252 -0.0408  0.1518
 1545W        W 4310   1.527   8.632   0.043  0.1380 -0.3594 -0.4302
 1546W        W 4311   7.141   0.077   6.903 -0.3037  0.2579 -0.0608
 1547W        W 4312   3.455   8.133   6.040 -0.2152 -0.0424  0.4104
 1548W        W 4313   4.108   3.155   1.713 -0.0266  0.2584  0.2049
 1549W        W 4314   8.075   2.621   0.742  0.1079  0.3434  0.1997
 1550W        W 4315   3.660   8.362   1.862  0.1241  0.0023  0.1764
 1551W        W 4316   4.443   7.536   0.972  0.0554  0.0769 -0.1700
 1552W        W 4317   3.498   0.922   0.585 -0.1348 -0.4553 -0.0239
 1553W        W 4318   4.840   4.883   0.091  0.0147  0.2850 -0.2774
 1554W        W 4319   7.599   2.413   6.438  0.0549 -0.3537 -0.0716
 1555W        W 4320   8.191   8.866   1.452  0.1091  0.0513  0.2613
 1556W        W 4321   1.595   2.758   1.020 -0.1227 -0.0932  0.0033
 1557W        W 4322   6.756   5.302   0.208 -0.2086 -0.2408 -0.3330
 1558W        W 4323   5.991   5.011   0.302 -0.0876  0.1991  0.0429
 1559W        W 4324   2.599   7.689   6.850  0.0932 -0.0720 -0.0751
 1560W        W 4325   7.885   4.386   6.824 -0.0518 -0.0081  0.2033
 1561W        W 4326   7.136   3.590   1.361 -0.0704 -0.3511  0.0698
 1562W        W 4327   5.168   2.739   6.201  0.0156  0.1295 -0.1540
 1563W        W 4328   1.407   5.524   1.391 -0.1164  0.2440 -0.1869
 1564W        W 4329   0.012   7.026   5.514  0.0832 -0.0669 -0.2253
 1565W        W 4330   0.820   6.161   6.094  0.2632  0.0914  0.0222
 1566W        W 4331   6.698   3.903   0.397  0.0186 -0.2766  0.1272
 1567W        W 4332   6.766   0.898   5.016 -0.0094 -0.0572 -0.1005
 1568W        W 4333   4.146   2.822   6.105  0.1440  0.2700  0.2366
 1569W        W 4334   2.781   5.707   0.987 -0.1061 -0.0579 -0.0754
 1570W        W 4335   0.462   6.569   0.042  0.1291 -0.2313 -0.4049
 1571W        W 4336   6.012   0.915   1.051  0.1155  0.1424  0.0490
 1572W        W 4337   0.428   3.974   6.388 -0.4444 -0.1161 -0.1882
 1573W        W 4338   8.656   1.125   0.675  0.1485  0.0169 -0.0481
 1574W        W 4339   4.883   1.005   0.905 -0.1825 -0.1988 -0.0419
 1575W        W 4340   4.652   8.496   2.010 -0.0027  0.1934 -0.2542
 1576W        W 4341   2.378   5.006   0.078 -0.2415  0.0729 -0.0163
 1577W        W 4342   5.095   8.905   0.601 -0.3838 -0.1816 -0.0444
 1578W        W 4343   0.741   5.156   1.471 -0.3008 -0.0670  0.4940
 1579W        W 4344   1.187   1.295   1.235 -0.0769  0.0041 -0.0412
 1580W        W 4345   7.959   8.130   6.366 -0.3502  0.1657 -0.1125
 1581W        W 4346   1.634   8.172   0.328  0.1788  0.2354 -0.1171
 1582W        W 4347   0.464   3.062   5.613 -0.3543 -0.1047 -0.0621
 1583W        W 4348   7.063   1.880   5.826  0.2444 -0.2186 -0.1795
 1584W        W 4349   2.620   4.622   6.886  0.2221 -0.2152 -0.0131
 1585W        W 4350   8.490   2.681   6.833  0.0165  0.0252  0.0636
 1586W        W 4351   0.594   7.940   6.799  0.0723  0.2728  0.2690
 1587W        W 4352   1.444   0.593   5.383 -0.1906  0.0319  0.0521
 1588W        W 4353   8.421   0.594   1.047 -0.3489 -0.3614 -0.0275
 1589W        W 4354   5.757   3.248   5.664 -0.3110 -0.2176 -0.0859
 1590W        W 4355   1.592   3.150   0.032 -0.1565  0.3046 -0.0499
 1591W        W 4356   5.185   6.029   5.951 -0.1585 -0.2667  0.1669
 1592W        W 4357   0.405   5.847   0.369 -0.1062 -0.3673  0.0252
 1593W        W 4358   8.072   7.027   0.373 -0.1857 -0.2404  0.1013
 1594W        W 4359   4.159   4.235   5.785  0.1245 -0.2375 -0.4020
 1595W        W 4360   0.457   8.354   1.147 -0.1987  0.0361 -0.2465
 1596W        W 4361   6.905   3.387   5.993  0.1084 -0.1275  0.1710
 1597W        W 4362   8.939   2.325   7.065 -0.1165 -0.0918 -0.1512
 1598W        W 4363   1.717   4.096   6.939 -0.1995  0.0893 -0.1923
 1599W        W 4364   1.469   7.050   0.990  0.1870 -0.0007 -0.3044
 1600W        W 4365   7.800   0.581   6.935  0.1930 -0.1325 -0.0465
 1601W        W 4366   8.370   1.346   0.250  0.3409  0.1063 -0.0872
 1602W        W 4367   7.631   2.252   4.563  0.0428 -0.3153  0.3409
 1603W        W 4368   7.390   0.911   0.559 -0.0917 -0.0887 -0.0189
 1604W        W 4369   7.558   3.374   0.905 -0.1184 -0.2009  0.2046
 1605W        W 4370   2.298   7.632   6.441  0.0273 -0.1035  0.0690
 1606W        W 4371   4.813   6.371   6.489 -0.2082  0.3053 -0.1610
 1607W        W 4372   3.812   7.817   0.215 -0.1731  0.2184 -0.4495
 1608W        W 4373   7.769   0.229   0.749  0.2394 -0.3006  0.0146
 1609W        W 4374   0.262   1.586   5.693  0.1461  0.1835  0.0196
 1610W        W 4375   5.864   7.001   6.559  0.1246  0.2836 -0.0202
 1611W        W 4376   4.226   3.094   0.542  0.0232  0.1226  0.0853
 1612W        W 4377   7.487   6.967   6.491  0.0104 -0.1371 -0.0735
 1613W        W 4378   7.402   6.959   0.814 -0.0577 -0.1233  0.0813
 1614W        W 4379   5.274   5.026   1.526 -0.2188  0.2068  0.2077
 1615W        W 4380   1.489   6.106   6.992  0.1765  0.2747  0.0470
 1616W        W 4381   6.061   1.323   6.853  0.1834 -0.0818  0.3079
 1617W        W 4382   1.713   8.134   6.564 -0.1377  0.4418 -0.3009
 1618W        W 4383   5.510   0.399   6.469  0.1700  0.2126 -0.2558
 1619W        W 4384   0.486   5.650   2.059 -0.0332  0.2730 -0.0005
 1620W        W 4385   0.153   3.431   5.869  0.1189  0.0421  0.0363
 1621W        W 4386   1.597   7.802   6.979 -0.2661  0.1274  0.2441
 1622W        W 4387   1.541   2.224   6.800 -0.2090  0.0441 -0.3289
 1623W        W 4388   5.762   6.093   5.635  0.0884 -0.2331 -0.2768
 1624W        W 4389   7.961   3.797   1.109  0.0565  0.2364  0.1668
 1625W        W 4390   2.156   5.114   0.491 -0.1357  0.1536  0.0435
 1626W        W 4391   4.785   6.519   0.900  0.2705 -0.0307 -0.2359
 1627W        W 4392   7.385   5.260   0.915 -0.3547  0.2129  0.0694
 1628W        W 4393   8.909   1.140   5.108  0.1299  0.2625  0.2945
 1629W        W 4394   1.096   4.535   0.415  0.0852 -0.1422  0.0713
 1630W        W 4395   4.856   8.013   0.817 -0.0816 -0.0369  0.0608
 1631W        W 4396   5.208   4.471   0.156 -0.0621 -0.3414  0.2538
 1632W        W 4397   0.438   4.349   1.418 -0.0465  0.0102  0.3106
 1633W        W 4398   1.834   2.350   0.865  0.0188  0.2160  0.0594
 1634W        W 4399   5.936   1.185   5.997  0.0236  0.0302  0.2813
 1635W        W 4400   0.044   2.829   5.717  0.1029 -0.2510  0.3327
 1636W        W 4401   5.985   9.114   0.463  0.2097 -0.2054  0.2153
 1637W        W 4402   5.822   6.366   0.323  0.3657  0.1006  0.1249
 1638W        W 4403   0.945   3.252   5.505  0.1082 -0.0698 -0.0503
 1639W        W 4404   9.033   7.550   6.291  0.3053  0.0811  0.0803
 1640W        W 4405   7.056   3.343   0.894  0.1569 -0.1115  0.0149
 1641W        W 4406   2.808   5.810   0.423 -0.2657 -0.0687  0.0766
 1642W        W 4407   6.521   4.826   0.702  0.1378 -0.4028  0.2365
 1643W        W 4408   6.769   8.548   5.231  0.3338 -0.1297  0.0718
 1644W        W 4409   1.244   4.376   6.415  0.1960  0.0858  0.0630
 1645W        W 4410   5.065   2.905   6.798 -0.3628 -0.0096 -0.0633
 1646W        W 4411   7.647   3.971   6.281 -0.0759 -0.0460  0.0970
 1647W        W 4412   8.692   7.456   1.845 -0.1792 -0.1376  0.1258
 1648W        W 4413   0.671   3.888   1.692  0.0545 -0.0357  0.0688
 1649W        W 4414   3.396   4.720   0.164 -0.2651 -0.0232 -0.1331
 1650W        W 4415   8.980   5.063   5.750 -0.0715  0.0533  0.0420
 1651W        W 4416   8.918   4.119   5.475 -0.1150  0.1570 -0.2842
 1652W        W 4417   6.132   0.825   0.558  0.1967 -0.1428  0.0550
 1653W        W 4418   4.075   4.025   1.983 -0.4921  0.3834  0.0745
 1654W        W 4419   7.094   0.245   6.404 -0.2981  0.2515 -0.1906
 1655W        W 4420   4.962   2.378   0.820  0.0335  0.0357 -0.2399
 1656W        W 4421   8.045   0.562   5.900  0.1038 -0.0649  0.1516
 1657W        W 4422   2.933   6.765   0.425 -0.2054 -0.1572 -0.1675
 1658W        W 4423   1.698   1.973   5.049 -0.1888 -0.0238  0.2734
 1659W        W 4424   4.922   0.102   5.563 -0.0978 -0.2279  0.2144
 1660W        W 4425   8.549   6.860   0.409  0.0437 -0.0394 -0.0526
 1661W        W 4426   1.957   4.055   1.027  0.1872  0.0233 -0.3703
 1662W        W 4427   4.734   5.143   5.117  0.2682  0.0651  0.1564
 1663W        W 4428   7.744   1.311   1.777  0.1373  0.0973 -0.0142
 1664W        W 4429   6.705   5.774   5.975  0.1214  0.0737  0.2026
 1665W        W 4430   8.450   3.959   5.915 -0.2360 -0.0406  0.2204
 1666W        W 4431   3.564   8.055   0.683 -0.1058  0.0850 -0.4945
 1667W        W 4432   1.521   6.384   6.189  0.0457 -0.0139 -0.3156
 1668W        W 4433   6.850   2.947   0.642  0.1929 -0.1944  0.0490
 1669W        W 4434   7.425   8.478   5.726  0.0500  0.0427  0.0712
 1670W        W 4435   2.248   4.811   5.454  0.1233  0.1303  0.1144
 1671W        W 4436   5.043   8.083   1.961  0.0803  0.1845 -0.1003
 1672W        W 4437   0.860   4.110   6.177  0.3159 -0.1526 -0.0535
 1673W        W 4438   6.055   7.083   0.091 -0.0510  0.0438 -0.1391
 1674W        W 4439   6.565   6.902   0.557  0.0943 -0.2082 -0.1006
 1675W        W 4440   8.728   2.050   6.255  0.3183  0.0159 -0.2179
 1676W        W 4441   6.398   1.171   0.226  0.1368  0.0608  0.2037
 1677W        W 4442   4.673   6.041   6.128 -0.1288 -0.0194  0.2747
 1678W        W 4443   4.086   0.403   0.984 -0.2122  0.2083  0.0254
 1679W        W 4444   2.032   1.771   6.868  0.0220 -0.1717  0.2162
 1680W        W 4445   7.107   5.886   6.856  0.3769 -0.2635  0.3253
 1681W        W 4446   2.214   0.139   5.715 -0.0763 -0.0712 -0.1637
 1682W        W 4447   3.559   6.367   5.957  0.0015 -0.1965 -0.0430
 1683W        W 4448   0.605   1.693   1.704 -0.1799  0.0252 -0.0977
 1684W        W 4449   6.502   1.618   7.035 -0.1191 -0.1919 -0.1734
 1685W        W 4450   1.373   5.745   0.293 -0.1254  0.1127 -0.0319
 1686W        W 4451   7.695   4.006   1.468 -0.1043  0.0248  0.0400
 1687W        W 4452   8.694   2.864   5.785 -0.1102 -0.1502  0.0921
 1688W        W 4453   3.814   5.181   0.142 -0.1602 -0.1636 -0.0187
 1689W        W 4454   1.108   3.709   6.987  0.0522 -0.2047 -0.3126
 1690W        W 4455   7.606   3.679   0.183  0.0650  0.0179 -0.0177
 1691W        W 4456   1.448   6.157   0.624  0.0137 -0.2197 -0.0575
 1692W        W 4457   7.092   5.405   6.917 -0.0479 -0.1772  0.1461
 1693W        W 4458   2.454   4.247   0.946 -0.2873 -0.1592 -0.2386
 1694W        W 4459   6.271   4.957   5.868 -0.0826 -0.1105 -0.1066
 1695W        W 4460   2.774   4.915   5.682  0.2515 -0.2833 -0.1780
 1696W        W 4461   0.586   1.804   0.767  0.1284  0.0784  0.5057
 1697W        W 4462   1.095   6.713   1.089  0.0754 -0.4351  0.1685
 1698W        W 4463   8.113   6.459   0.379  0.0554 -0.0375 -0.0904
 1699W        W 4464   7.399   2.665   5.614 -0.0126 -0.0673  0.1936
 1700W        W 4465   3.465   5.797   5.311  0.3125 -0.1354 -0.1296
 1701W        W 4466   1.595   2.186   0.274 -0.1291 -0.0735  0.2241
 1702W        W 4467   7.541   8.137   6.677 -0.2541 -0.0011 -0.2328
 1703W        W 4468   2.503   4.272   5.999  0.1740 -0.1486  0.0606
 1704W        W 4469   1.125   3.318   5.995  0.0689  0.0621  0.3594
 1705W        W 4470   7.442   1.317   6.880  0.0403  0.1070 -0.0361
 1706W        W 4471   0.838   1.692   1.254  0.2053  0.1201 -0.1929
 1707W        W 4472   0.236   3.849   6.812 -0.0267 -0.2256  0.1044
 1708W        W 4473   5.319   0.523   7.049  0.2780  0.1883 -0.0515
 1709W        W 4474   0.311   0.149   0.028  0.0445 -0.0187 -0.2754
 1710W        W 4475   6.832   1.406   0.295 -0.1446 -0.2749 -0.1440
 1711W        W 4476   4.387   4.373   6.234 -0.3203 -0.0755 -0.3819
 1712W        W 4477   2.570   5.340   0.547 -0.4619  0.1885  0.1526
 1713W        W 4478   7.751   3.500   6.595  0.3053 -0.0488 -0.0564
 1714W        W 4479   1.198   4.097   0.909  0.0278  0.3898  0.0021
 1715W        W 4480   7.467   4.491   1.771 -0.4822  0.3403  0.2148
 1716W        W 4481   6.085   1.743   5.295 -0.1082 -0.4413 -0.0215
 1717W        W 4482   2.881   2.363   0.082  0.1897  0.0318  0.0784
 1718W        W 4483   4.680   8.776   1.516  0.4960 -0.1703  0.0714
 1719W        W 4484   2.753   7.068   1.188 -0.3147  0.1885 -0.1480
 1720W        W 4485   1.362   3.304   6.473 -0.1430  0.1024  0.1203
 1721W        W 4486   2.054   3.014   1.335 -0.3713  0.2193 -0.2360
 1722W        W 4487   3.809   5.563   1.163  0.0715  0.0857 -0.0860
 1723W        W 4488   6.355   2.244   1.664 -0.4059 -0.0840  0.1271
 1724W        W 4489   7.487   4.383   1.242  0.1315 -0.1096 -0.0032
 1725W        W 4490   7.494   6.141   0.471 -0.0090 -0.0452  0.1991
 1726W        W 4491   3.151   4.520   1.541 -0.0437 -0.0505 -0.0814
 1727W        W 4492   4.351   2.559   7.067  0.0008 -0.3040 -0.2501
 1728W        W 4493   7.120   2.127   5.392 -0.0992  0.1206  0.0120
 1729W        W 4494   5.532   2.455   5.983  0.2833  0.2375 -0.1891
 1730W        W 4495   5.184   1.410   1.153 -0.1272 -0.6300  0.2508
 1731W        W 4496   1.590   2.666   0.121  0.2528  0.2131  0.0540
 1732W        W 4497   6.751   1.469   5.748  0.1698 -0.0082  0.3088
 1733W        W 4498   3.856   4.575   6.070 -0.0028  0.2602 -0.0622
 1734W        W 4499   0.374   1.591   1.151 -0.1443  0.1673 -0.0332
 1735W        W 4500   1.985   6.380   1.379  0.1298  0.3076  0.4099
 1736W        W 4501   3.867   3.594   6.427  0.2442  0.1951  0.0313
 1737W        W 4502   6.267   8.037   6.486 -0.0568  0.1040  0.0270
 1738W        W 4503   0.084   3.301   5.381  0.1548 -0.0334 -0.1063
 1739W        W 4504   2.493   6.250   5.697 -0.0835  0.0499  0.0288
 1740W        W 4505   1.299   3.472   0.854  0.2112  0.3076  0.0683
 1741W        W 4506   8.110   4.610   5.603 -0.0934 -0.1279 -0.1762
 1742W        W 4507   2.296   5.965   0.670 -0.2084  0.1681 -0.3266
 1743W        W 4508   8.808   6.257   6.777 -0.1255  0.0394 -0.2086
 1744W        W 4509   7.909   8.419   5.743 -0.2225  0.0104  0.0419
 1745W        W 4510   8.438   7.547   5.663 -0.0512  0.0441  0.1180
 1746W        W 4511   2.249   6.470   0.903 -0.1759  0.1064 -0.0237
 1747W        W 4512   8.472   6.566   1.050  0.0541  0.0640  0.1874
 1748W        W 4513   0.274   7.045   6.896  0.0045  0.0204  0.0078
 1749W        W 4514   3.551   2.504   0.095  0.0107 -0.1742 -0.3804
 1750W        W 4515   3.555   7.676   1.113 -0.0092 -0.1642 -0.0997
 1751W        W 4516   0.118   2.158   6.015 -0.0098 -0.0786 -0.1954
 1752W        W 4517   0.220   7.453   5.598  0.2453 -0.1242 -0.1167
 1753W        W 4518   0.172   0.429   1.539  0.3958  0.0257 -0.1192
 1754W        W 4519   2.204   6.336   6.178 -0.4074 -0.2267 -0.0685
 1755W        W 4520   8.401   5.498   1.227  0.1773 -0.2635  0.1347
 1756W        W 4521   5.344   7.176   1.652 -0.0063  0.0135 -0.2100
 1757W        W 4522   8.699   0.185   0.886  0.0457 -0.0953  0.3411
 1758W        W 4523   2.136   1.420   1.257  0.1989 -0.0046 -0.0150
 1759W        W 4524   5.965   3.358   1.456 -0.0423  0.0470  0.1170
 1760W        W 4525   1.205   4.352   6.941 -0.0418 -0.1096  0.2714
 1761W        W 4526   0.694   7.018   0.177  0.2109  0.3184  0.3320
 1762W        W 4527   2.934   4.043   6.210  0.2235  0.1654  0.0490
 1763W        W 4528   2.924   8.667   5.560  0.0458 -0.0704  0.2305
 1764W        W 4529   7.955   8.202   6.926  0.3115 -0.3418  0.2962
 1765W        W 4530   6.307   3.770   0.680  0.1453 -0.0170 -0.0171
 1766W        W 4531   0.358   3.014   6.109  0.2793 -0.1989  0.1521
 1767W        W 4532   2.156   2.122   5.132  0.1564  0.0094  0.1517
 1768W        W 4533   5.446   1.472   6.034 -0.4342 -0.0574 -0.1162
 1769W        W 4534   9.025   4.743   5.291  0.2553  0.1169 -0.1016
 1770W        W 4535   2.989   0.164   5.758 -0.1118 -0.1486  0.0840
 1771W        W 4536   2.549   8.130   6.574  0.0961 -0.4980 -0.1886
 1772W        W 4537   6.634   5.708   0.742 -0.2716 -0.0212 -0.5504
 1773W        W 4538   7.822   5.142   2.243 -0.2484  0.1256  0.1398
 1774W        W 4539   2.658   8.912   1.372  0.0710 -0.3667 -0.1425
 1775W        W 4540   4.429   0.951   0.251  0.0522  0.0107 -0.2937
 1776W        W 4541   8.588   0.279   6.599  0.0740 -0.2493  0.2285
 1777W        W 4542   3.233   6.218   5.619 -0.1296  0.2610  0.1473
 1778W        W 4543   6.568   2.188   5.242 -0.0498  0.1657  0.1903
 1779W        W 4544   3.842   8.999   5.438 -0.2717 -0.1536 -0.0669
 1780W        W 4545   3.852   4.580   0.350 -0.0723  0.1234 -0.1770
 1781W        W 4546   1.147   2.878   6.309 -0.2092  0.0224  0.2782
 1782W        W 4547   2.571   2.244   6.734  0.0900 -0.0853  0.3006
 1783W        W 4548   5.766   7.712   0.882 -0.1999  0.5850  0.1286
 1784W        W 4549   5.238   1.515   0.274 -0.1724  0.1632 -0.2334
 1785W        W 4550   8.866   2.446   5.963  0.0412 -0.0673 -0.2532
 1786W        W 4551   7.317   2.922   0.794  0.1185 -0.0530 -0.2570
 1787W        W 4552   1.500   2.323   1.361  0.0217 -0.0431 -0.0703
 1788W        W 4553   2.915   8.260   0.306  0.0661 -0.2611 -0.1067
 1789W        W 4554   9.066   6.391   6.369 -0.0844  0.0371 -0.1695
 1790W        W 4555   4.602   6.799   5.621 -0.2312 -0.2149 -0.1354
 1791W        W 4556   6.930   4.221   1.160 -0.0279  0.0450 -0.0363
 1792W        W 4557   1.682   0.278   5.687  0.0706 -0.2409 -0.1801
 1793W        W 4558   8.577   3.581   1.759 -0.0178 -0.0135  0.1808
 1794W        W 4559   8.424   2.465   5.639  0.0333 -0.1007  0.0808
 1795W        W 4560   6.188   2.198   1.177  0.0077 -0.0695  0.3472
 1796W        W 4561   6.569   4.297   6.363  0.0947  0.1509 -0.0840
 1797W        W 4562   6.676   4.614   6.697  0.1298  0.1472 -0.1060
 1798W        W 4563   8.153   3.177   1.447 -0.3226 -0.1510  0.0914
 1799W        W 4564   3.195   3.865   6.973  0.1470  0.0566 -0.2268
 1800W        W 4565   7.654   5.771   6.230  0.0891  0.0494 -0.4387
 1801W        W 4566   3.178   5.598   7.033  0.0453 -0.0024  0.0247
 1802W        W 4567   7.491   3.263   5.984 -0.0964 -0.2306  0.0820
 1803W        W 4568   0.880   2.456   0.732  0.0270  0.0175 -0.1251
 1804W        W 4569   6.630   0.157   5.622 -0.0332 -0.0154  0.3209
 1805W        W 4570   3.956   4.211   7.011  0.0857 -0.0117  0.0227
 1806W        W 4571   8.795   6.724   6.623 -0.0689  0.4371  0.0034
 1807W        W 4572   3.838   1.265   6.356  0.1307  0.1736  0.3536
 1808W        W 4573   5.469   8.297   6.306  0.0442 -0.1751 -0.1452
 1809W        W 4574   4.606   3.118   6.704  0.0439 -0.2003  0.0087
 1810W        W 4575   6.343   3.957   5.909 -0.1335  0.0099  0.0343
 1811W        W 4576   2.534   6.276   1.363 -0.6426 -0.0462 -0.1538
 1812W        W 4577   3.085   3.409   0.101 -0.3519 -0.1504 -0.0521
 1813W        W 4578   3.592   7.244   1.388 -0.1282 -0.0514  0.1835
 1814W        W 4579   1.896   8.038   5.550 -0.0659  0.3119 -0.0990
 1815W        W 4580   5.952   3.410   6.531 -0.0605 -0.1476  0.0778
 1816W        W 4581   0.212   2.553   1.000 -0.0471 -0.1645  0.1343
 1817W        W 4582   3.987   0.756   6.353 -0.2504  0.4115  0.0684
 1818W        W 4583   7.394   8.442   1.655  0.2794 -0.1228  0.2154
 1819W        W 4584   2.666   6.787   6.980  0.0823 -0.0899 -0.1190
 1820W        W 4585   7.948   7.153   6.391  0.0167  0.0094 -0.1734
 1821W        W 4586   8.537   8.456   2.066 -0.2932  0.0867  0.4659
 1822W        W 4587   6.677   3.412   0.555 -0.3810 -0.2581  0.1246
 1823W        W 4588   8.840   1.142   6.647 -0.1154 -0.1787 -0.0136
 1824W        W 4589   4.669   3.608   6.490  0.0842 -0.1709 -0.1608
 1825W        W 4590   2.566   0.777   0.666  0.1242  0.0491  0.0156
 1826W        W 4591   7.265   4.840   6.690  0.0059 -0.2369  0.1371
 1827W        W 4592   8.478   8.073   0.598  0.1344  0.1569 -0.1514
 1828W        W 4593   0.281   3.080   1.258  0.1486 -0.1157 -0.1541
 1829W        W 4594   3.766   3.318   0.655  0.0639  0.0449  0.1008
 1830W        W 4595   6.150   8.389   5.926  0.1271  0.0852  0.0959
 1831W        W 4596   0.583   3.431   1.047 -0.0429  0.3579 -0.2375
 1832W        W 4597   4.294   1.187   6.457 -0.0055  0.0304  0.0268
 1833W        W 4598   0.554   3.547   5.567 -0.2271  0.3356  0.5171
 1834W        W 4599   7.133   1.188   6.494 -0.0435  0.2245 -0.1969
 1835W        W 4600   7.940   3.148   5.745 -0.1498  0.1963 -0.0882
 1836W        W 4601   0.864   4.676   1.420  0.1844 -0.1738  0.1646
 1837W        W 4602   3.619   6.099   6.493 -0.0074  0.0226  0.1205
 1838W        W 4603   7.201   8.268   5.331  0.0325  0.0227 -0.0933
 1839W        W 4604   3.387   6.088   7.035 -0.1728  0.3536  0.0639
 1840W        W 4605   8.213   3.327   2.183  0.1909 -0.0018  0.0587
 1841W        W 4606   5.530   2.650   7.043 -0.1309 -0.0156  0.0038
 1842W        W 4607   5.589   0.250   0.755 -0.0783 -0.0557  0.0027
 1843W        W 4608   8.242   2.376   6.395 -0.0988 -0.3461 -0.1453
 1844W        W 4609   4.466   7.148   6.443 -0.1019  0.0322 -0.0493
 1845W        W 4610   9.124   4.084   1.138  0.2094 -0.0858  0.0382
 1846W        W 4611   8.561   7.731   1.369  0.1825 -0.1248 -0.1389
 1847W        W 4612   8.832   8.157   1.326 -0.1798  0.1579  0.1312
 1848W        W 4613   4.531   8.409   6.000 -0.1506  0.2408 -0.1333
 1849W        W 4614   4.908   4.050   0.824  0.2150  0.3966 -0.0292
 1850W        W 4615   1.012   3.657   1.157 -0.3831 -0.1029 -0.0115
 1851W        W 4616   2.054   5.574   6.456 -0.2191 -0.3455  0.0451
 1852W        W 4617   2.843   0.768   5.799  0.2112 -0.2400 -0.0605
 1853W        W 4618   8.382   4.565   7.032  0.0019 -0.1354  0.0466
 1854W        W 4619   3.127   0.026   1.182  0.5200 -0.3191  0.0930
 1855W        W 4620   7.286   0.726   5.710 -0.1740 -0.0244  0.0959
 1856W        W 4621   6.252   1.273   0.781 -0.2189 -0.3189  0.4541
 1857W        W 4622   8.350   7.003   6.610 -0.0110 -0.2333  0.0043
 1858W        W 4623   4.839   2.306   1.542 -0.0235 -0.1064 -0.0963
 1859W        W 4624   2.875   6.741   6.505  0.5257 -0.3158  0.0268
 1860W        W 4625   6.910   1.087   5.459 -0.1758  0.0439 -0.0228
 1861W        W 4626   6.485   0.624   1.640  0.0464 -0.1196 -0.3133
 1862W        W 4627   5.491   6.509   5.822 -0.0734 -0.2596 -0.0394
 1863W        W 4628   5.815   2.544   0.927  0.1316  0.3039 -0.1006
 1864W        W 4629   1.182   3.412   0.349  0.1336  0.1336 -0.1596
 1865W        W 4630   3.888   4.741   6.964 -0.2252 -0.0597  0.5172
 1866W        W 4631   0.234   4.172   2.371 -0.0426 -0.1414  0.1136
 1867W        W 4632   4.718   6.063   5.610  0.0631  0.0851 -0.0076
 1868W        W 4633   4.141   5.558   0.262 -0.3542 -0.1739 -0.1210
 1869W        W 4634   6.985   1.682   1.094  0.0428  0.0978  0.1738
 1870W        W 4635   4.301   1.928   7.014 -0.0348  0.4946  0.1128
 1871W        W 4636   8.354   8.086   6.611 -0.0758  0.3968  0.1750
 1872W        W 4637   7.602   6.248   6.924 -0.3676 -0.1886  0.1985
 1873W        W 4638   6.419   0.960   5.363 -0.3817 -0.1996  0.0587
 1874W        W 4639   6.919   6.607   5.583  0.0474  0.3718  0.0785
 1875W        W 4640   7.644   0.949   6.657 -0.0297  0.0135 -0.1811
 1876W        W 4641   0.103   1.073   0.001  0.3180 -0.1331 -0.2042
 1877W        W 4642   2.361   2.978   5.452  0.1540 -0.0199  0.2209
 1878W        W 4643   7.704   0.297   1.652 -0.2357  0.1978 -0.2080
 1879W        W 4644   4.821   6.234   1.641 -0.0217  0.1647 -0.0509
 1880W        W 4645   4.859   7.580   0.583 -0.1112 -0.1339 -0.2126
 1881W        W 4646   5.103   3.444   5.466  0.0142 -0.1205 -0.1977
 1882W        W 4647   0.550   5.797   0.897 -0.2814 -0.0922 -0.0339
 1883W        W 4648   8.850   1.487   1.548 -0.0278  0.2405  0.0528
 1884W        W 4649   7.482   1.035   1.016  0.0530  0.0395  0.2285
 1885W        W 4650   8.508   0.729   6.234 -0.1320 -0.1025  0.2455
 1886W        W 4651   1.369   6.461   2.174  0.2560 -0.0887 -0.1818
 1887W        W 4652   0.416   3.516   1.498 -0.2097 -0.2181 -0.0067
 1888W        W 4653   8.345   2.350   0.086  0.1046 -0.1841 -0.0002
 1889W        W 4654   2.536   1.669   6.690 -0.2621  0.0621  0.0584
 1890W        W 4655   0.720   4.135   0.007 -0.0083 -0.2158  0.0470
 1891W        W 4656   1.832   8.933   5.756 -0.1315 -0.2796 -0.0503
 1892W        W 4657   3.024   8.575   1.098  0.3902 -0.3014 -0.1863
 1893W        W 4658   2.996   6.453   1.101  0.4133 -0.0400  0.0365
 1894W        W 4659   1.734   2.068   1.790  0.2277  0.0315 -0.3021
 1895W        W 4660   0.881   7.583   6.543  0.1339  0.0025 -0.0464
 1896W        W 4661   2.135   0.288   0.372 -0.2929  0.4021  0.1547
 1897W        W 4662   8.290   0.231   6.219  0.1809  0.2243  0.0571
 1898W        W 4663   8.065   8.545   0.873  0.1885  0.0555 -0.2560
 1899W        W 4664   8.846   7.305   5.319 -0.0099  0.1924 -0.1579
 1900W        W 4665   0.055   0.946   1.546 -0.1312 -0.3938 -0.2439
 1901W        W 4666   2.613   2.343   5.919  0.0632  0.1484 -0.0301
 1902W        W 4667   5.897   2.072   6.421  0.2284  0.0213 -0.1276
 1903W        W 4668   2.491   8.366   6.047  0.0701 -0.2323  0.1155
 1904W        W 4669   4.030   5.777   6.615  0.0068 -0.4428  0.4386
 1905W        W 4670   1.995   1.702   0.350  0.0806  0.0194 -0.0643
 1906W        W 4671   5.230   1.412   5.620  0.2787  0.0792  0.0221
 1907W        W 4672   7.144   2.356   6.015 -0.2255 -0.0190  0.1620
 1908W        W 4673   5.363   5.631   0.415  0.0829 -0.1797 -0.0996
 1909W        W 4674   8.440   8.256   0.026 -0.2705 -0.0860 -0.1952
 1910W        W 4675   1.252   6.938   0.470  0.0391  0.1039  0.0862
 1911W        W 4676   3.970   7.644   5.305 -0.2949 -0.0830 -0.1315
 1912W        W 4677   6.325   7.590   6.254  0.0777 -0.0850  0.1035
 1913W        W 4678   4.798   7.328   6.745 -0.0714 -0.1109  0.1094
 1914W        W 4679   6.274   8.209   5.501 -0.2058 -0.0665 -0.2401
 1915W        W 4680   6.195   8.607   6.447 -0.0945  0.1563 -0.1182
 1916W        W 4681   6.834   0.789   6.095  0.0441 -0.1814 -0.0712
 1917W        W 4682   1.309   7.386   1.676 -0.1127 -0.2608 -0.1351
 1918W        W 4683   7.044   6.004   0.605  0.1623 -0.0070 -0.0015
 1919W        W 4684   2.052   2.597   5.295  0.1102  0.4394 -0.3230
 1920W        W 4685   0.615   7.715   5.029  0.0278  0.0788  0.3585
 1921W        W 4686   8.984   6.467   0.204  0.3453 -0.1854 -0.0788
 1922W        W 4687   1.634   2.668   6.144  0.0613  0.2339 -0.1367
 1923W        W 4688   6.610   1.704   6.540  0.0379 -0.0866  0.0845
 1924W        W 4689   0.467   8.695   6.492 -0.0907 -0.2315  0.1414
 1925W        W 4690   0.392   1.477   0.041  0.0468  0.1711 -0.0630
 1926W        W 4691   4.261   7.930   6.988  0.0872  0.0935 -0.0419
 1927W        W 4692   2.881   5.909   5.479 -0.0883  0.0256 -0.1831
 1928W        W 4693   3.076   6.329   6.767  0.1729 -0.1792 -0.3413
 1929W        W 4694   3.870   5.083   1.236  0.4154  0.2517  0.0378
 1930W        W 4695   5.978   6.615   6.238 -0.0327 -0.2499 -0.4486
 1931W        W 4696   8.110   3.251   0.997 -0.0353  0.1665  0.0638
 1932W        W 4697   4.626   7.939   5.927 -0.1309  0.1446 -0.4139
 1933W        W 4698   3.571   1.808   0.723  0.1462  0.0890 -0.2632
 1934W        W 4699   8.951   3.994   6.915  0.2852 -0.2262 -0.0214
 1935W        W 4700   3.269   1.980   0.316 -0.3957  0.1065  0.1376
 1936W        W 4701   3.557   0.092   0.354  0.0479  0.0056 -0.1673
 1937W        W 4702   6.039   4.416   7.028 -0.0819  0.1410  0.2027
 1938W        W 4703   1.809   1.982   1.344  0.0403 -0.3244  0.0386
 1939W        W 4704   0.264   8.839   5.670 -0.0648  0.2124 -0.0849
 1940W        W 4705   4.186   6.005   6.165 -0.1501 -0.4762 -0.2208
 1941W        W 4706   7.582   5.766   1.771  0.0725 -0.1096 -0.1053
 1942W        W 4707   0.296   3.478   0.598 -0.2212 -0.0520 -0.0254
 1943W        W 4708   6.696   8.399   5.707 -0.1305  0.0270  0.0361
 1944W        W 4709   4.190   8.758   6.200 -0.2230 -0.0052  0.1069
 1945W        W 4710   3.568   4.813   6.607  0.1014  0.2216 -0.0395
 1946W        W 4711   7.265   5.528   6.480  0.0913  0.0274 -0.0501
 1947W        W 4712   1.138   2.649   6.757 -0.2609 -0.1150 -0.1649
 1948W        W 4713   2.413   7.136   6.508  0.2207 -0.3395 -0.1195
 1949W        W 4714   6.940   6.479   1.324 -0.3070  0.1438 -0.1347
 1950W        W 4715   4.239   2.202   0.349  0.3553  0.1014  0.0495
 1951W        W 4716   3.694   2.896   6.831  0.2275  0.0218  0.1643
 1952W        W 4717   6.349   3.155   6.805 -0.0364  0.0896  0.2308
 1953W        W 4718   1.916   0.041   0.760 -0.0843 -0.0698 -0.1285
 1954W        W 4719   5.331   6.126   0.283  0.0327  0.0461 -0.0374
 1955W        W 4720   8.000   1.394   6.155 -0.1564 -0.2063  0.1157
 1956W        W 4721   6.500   3.129   0.221  0.0544  0.1715 -0.0078
 1957W        W 4722   8.920   2.858   6.852 -0.0773  0.1025 -0.1095
 1958W        W 4723   8.864   5.945   0.198 -0.2415 -0.0556  0.1935
 1959W        W 4724   8.434   3.217   6.318 -0.2770 -0.0619  0.0884
 1960W        W 4725   8.940   7.957   0.808 -0.0931 -0.1160  0.0277
 1961W        W 4726   8.787   8.294   5.318 -0.0476  0.1258  0.2464
 1962W        W 4727   7.662   8.185   0.756 -0.3272  0.0208  0.2415
 1963W        W 4728   8.845   5.300   6.592 -0.0369 -0.0543  0.1918
 1964W        W 4729   2.752   8.255   1.402  0.0343  0.0907  0.1742
 1965W        W 4730   7.222   3.234   6.410  0.1804 -0.0139  0.0003
 1966W        W 4731   1.803   1.002   0.191  0.2235  0.0371 -0.2028
 1967W        W 4732   8.399   7.718   7.068 -0.0163 -0.1443 -0.2546
 1968W        W 4733   6.434   1.088   5.814  0.0018 -0.3363  0.0893
 1969W        W 4734   3.492   2.102   6.880 -0.0629  0.2903  0.4342
 1970W        W 4735   5.772   5.809   0.207  0.2284  0.1063 -0.0105
 1971W        W 4736   0.538   6.963   1.127 -0.0769 -0.0784  0.2008
 1972W        W 4737   4.427   1.417   0.364 -0.1856 -0.0198 -0.2577
 1973W        W 4738   4.502   1.820   5.671  0.0088  0.1486 -0.3172
 1974W        W 4739   4.865   0.533   1.518  0.0067 -0.2489  0.1973
 1975W        W 4740   0.595   7.455   6.976 -0.0969 -0.3245  0.2469
 1976W        W 4741   1.865   6.805   1.582 -0.1982  0.0858 -0.1727
 1977W        W 4742   9.016   1.649   6.225  0.5962  0.2402  0.3002
 1978W        W 4743   8.896   6.965   6.124 -0.0514 -0.0605  0.1257
 1979W        W 4744   5.021   3.759   1.259  0.0982 -0.0660  0.2035
 1980W        W 4745   1.932   8.450   5.945 -0.0588 -0.0236 -0.0971
 1981W        W 4746   4.199   1.575   5.910 -0.4101 -0.4534 -0.2504
 1982W        W 4747   7.539   7.749   7.069 -0.1214  0.3952  0.0754
 1983W        W 4748   0.938   3.289   2.421 -0.0420 -0.0667  0.1778
 1984W        W 4749   1.875   5.190   6.725 -0.0091  0.0120  0.1627
 1985W        W 4750   8.934   6.735   1.281  0.0195 -0.1621  0.0598
 1986W        W 4751   6.346   5.784   0.275 -0.1131  0.0357 -0.1947
 1987W        W 4752   1.248   8.025   0.857  0.2170  0.1526  0.0915
 1988W        W 4753   2.491   4.604   0.495  0.1015 -0.1005 -0.1412
 1989W        W 4754   3.671   6.913   6.986 -0.0113  0.1576  0.1033
 1990W        W 4755   7.228   7.893   0.333 -0.0961 -0.3244 -0.1048
 1991W        W 4756   1.431   8.960   0.876 -0.0385 -0.1898  0.4833
 1992W        W 4757   3.146   3.447   0.675  0.1632  0.0747 -0.2503
 1993W        W 4758   1.908   7.285   1.608 -0.0159 -0.0151 -0.0728
 1994W        W 4759   0.610   8.597   0.559  0.1133 -0.0649  0.0313
 1995W        W 4760   3.269   8.649   6.222  0.0007  0.1241  0.1039
 1996W        W 4761   3.208   7.170   0.213  0.0496  0.0546 -0.0716
 1997W        W 4762   5.880   5.966   1.180 -0.3955  0.2391  0.2267
 1998W        W 4763   4.252   0.025   6.653  0.2075 -0.1534  0.0093
 1999W        W 4764   2.120   5.874   6.012 -0.0838 -0.1902 -0.2244
 2000W        W 4765   4.602   4.444   0.962  0.0641 -0.1023 -0.0024
 2001W        W 4766   1.069   1.078   6.211 -0.0894  0.1572 -0.1445
 2002W        W 4767   4.149   4.779   6.549 -0.3367  0.0292 -0.2799
 2003W        W 4768   1.522   6.937   7.035  0.0939  0.1348  0.0922
 2004W        W 4769   1.737   7.691   0.459 -0.2181 -0.1930 -0.0564
 2005W        W 4770   6.627   4.682   1.183 -0.2312  0.2415 -0.2109
 2006W        W 4771   0.699   4.122   0.565  0.1496  0.0277  0.1670
 2007W        W 4772   8.535   1.822   1.620  0.0955  0.1919  0.0706
 2008W        W 4773   7.028   6.485   0.804 -0.2337  0.2632 -0.1863
 2009W        W 4774   4.690   8.377   1.086  0.1622 -0.1443  0.1961
 2010W        W 4775   5.438   3.879   0.966  0.1170  0.2157 -0.0760
 2011W        W 4776   6.381   8.285   4.992 -0.1349 -0.0194 -0.2202
 2012W        W 4777   9.062   7.544   1.551  0.3849 -0.2759  0.0788
 2013W        W 4778   2.868   7.606   0.279  0.1557 -0.2350  0.0508
 2014W        W 4779   8.862   2.510   0.843 -0.4008  0.2807 -0.0885
 2015W        W 4780   1.182   8.612   6.287 -0.1222  0.0863 -0.2380
 2016W        W 4781   4.109   0.953   6.906  0.0272 -0.1124  0.1686
 2017W        W 4782   3.142   9.095   0.675  0.1063  0.0862 -0.2128
 2018W        W 4783   2.784   7.925   5.105 -0.2805  0.2422 -0.0913
 2019W        W 4784   6.015   1.730   0.903  0.0191 -0.0195 -0.0327
 2020W        W 4785   1.172   5.843   5.489 -0.0520  0.0169  0.0416
 2021W        W 4786   3.095   7.097   6.275  0.2917 -0.2039  0.1780
 2022W        W 4787   3.587   7.543   4.953 -0.0853  0.1678 -0.1653
 2023W        W 4788   1.318   3.920   1.694 -0.0440  0.0968  0.1279
 2024W        W 4789   7.408   4.753   6.155  0.3732  0.0995  0.0555
 2025W        W 4790   2.981   7.143   6.761  0.1571 -0.2112  0.1910
 2026W        W 4791   0.623   6.484   1.058 -0.0623 -0.1168  0.2496
 2027W        W 4792   1.843   6.613   6.645  0.0628 -0.0782  0.3569
 2028W        W 4793   5.308   6.438   0.715  0.1307  0.2081 -0.1828
 2029W        W 4794   7.613   7.118   0.352  0.2840  0.3912  0.0051
 2030W        W 4795   0.190   4.352   5.258  0.0380 -0.0966 -0.0584
 2031W        W 4796   8.382   6.014   0.443 -0.3943 -0.0119  0.1085
 2032W        W 4797   5.087   4.827   6.691  0.1651  0.0488 -0.1321
 2033W        W 4798   8.762   0.920   5.691  0.0272 -0.3121 -0.1341
 2034W        W 4799   0.665   3.724   2.563  0.0564  0.1659 -0.2391
 2035W        W 4800   3.442   0.548   0.176 -0.0739  0.0130 -0.2908
 2036W        W 4801   4.069   5.973   0.477 -0.2423 -0.3133 -0.0406
 2037W        W 4802   3.166   5.021   6.367  0.0469  0.0678  0.1081
 2038W        W 4803   0.002   3.040   2.309 -0.1003  0.1881 -0.3993
 2039W        W 4804   5.850   3.548   0.939 -0.2140 -0.0071 -0.0493
 2040W        W 4805   4.535   1.550   5.212  0.1692  0.1372 -0.1435
 2041W        W 4806   7.638   2.912   6.641 -0.2750 -0.0541  0.1148
 2042W        W 4807   5.066   1.930   0.440 -0.0157 -0.1532  0.1801
 2043W        W 4808   7.955   7.138   6.922 -0.3651 -0.0047  0.2630
 2044W        W 4809   5.802   0.629   5.943 -0.0736 -0.0115  0.1316
 2045W        W 4810   6.446   0.939   1.259 -0.1977 -0.1267 -0.2754
 2046W        W 4811   0.814   1.451   5.432 -0.2051  0.0033 -0.1753
 2047W        W 4812   2.224   5.517   1.446 -0.1212  0.3548 -0.0351
 2048W        W 4813   5.265   3.257   5.924  0.0276  0.0099 -0.0915
 2049W        W 4814   1.212   1.459   5.880  0.0704  0.0389 -0.3370
 2050W        W 4815   3.711   1.279   5.423 -0.0114 -0.0191 -0.2158
 2051W        W 4816   6.926   6.794   6.385 -0.2513  0.1847 -0.2221
 2052W        W 4817   3.746   8.467   0.890  0.4088 -0.0621 -0.1157
 2053W        W 4818   0.487   4.775   6.241  0.3795 -0.2172 -0.1994
 2054W        W 4819   1.873   6.141   0.919 -0.1400  0.2663 -0.1466
 2055W        W 4820   2.890   8.717   0.581  0.0447  0.2091 -0.0191
 2056W        W 4821   2.691   5.392   0.089  0.0644  0.0649  0.1576
 2057W        W 4822   4.192   4.935   0.434  0.1912 -0.0939 -0.0036
 2058W        W 4823   1.520   7.371   6.080 -0.0713  0.1693  0.0925
 2059W        W 4824   2.017   8.645   4.962  0.3020  0.1440 -0.1853
 2060W        W 4825   8.899   5.079   0.358  0.2925  0.0906 -0.1388
 2061W        W 4826   2.133   6.126   1.759  0.0489  0.1151 -0.2203
 2062W        W 4827   4.306   1.199   5.465 -0.2754 -0.1559 -0.2368
 2063W        W 4828   4.736   4.916   0.628  0.2215 -0.1921  0.0335
 2064W        W 4829   1.966   0.673   0.667 -0.1779  0.0994 -0.2676
 2065W        W 4830   5.945   3.908   1.295  0.1097 -0.0768 -0.1032
 2066W        W 4831   7.988   6.459   1.225 -0.0737  0.0849  0.1511
 2067W        W 4832   3.408   6.926   5.295 -0.1154 -0.3139 -0.0986
 2068W        W 4833   8.437   2.851   1.165 -0.0051 -0.2839  0.2221
 2069W        W 4834   0.357   2.878   0.625 -0.0810 -0.0110  0.0194
 2070W        W 4835   7.157   4.651   0.945  0.0348  0.2267  0.2444
 2071W        W 4836   5.979   3.947   6.868 -0.3092  0.2519  0.1899
 2072W        W 4837   7.874   5.163   1.343  0.0451  0.2669 -0.0515
 2073W        W 4838   7.937   3.103   6.275 -0.0685 -0.0745 -0.0887
 2074W        W 4839   7.476   1.121   5.483 -0.2703 -0.0632  0.2369
 2075W        W 4840   3.425   8.259   1.146 -0.1308  0.1385  0.0449
 2076W        W 4841   9.031   8.084   6.324  0.1031  0.0240  0.1859
 2077W        W 4842   1.925   2.734   0.460 -0.3705 -0.1543  0.0823
 2078W        W 4843   2.012   1.468   6.492  0.1073  0.0322  0.0288
 2079W        W 4844   8.587   2.517   4.731 -0.0559 -0.2408  0.2032
 2080W        W 4845   1.958   5.264   2.293 -0.1760  0.2334 -0.1784
 2081W        W 4846   7.946   2.332   6.021  0.0301 -0.0987  0.0804
 2082W        W 4847   0.166   7.949   0.038  0.0641 -0.1683 -0.4374
 2083W        W 4848   0.679   1.425   5.970 -0.1539 -0.1579 -0.0465
 2084W        W 4849   0.193   2.499   6.723  0.0476 -0.0646  0.3688
 2085W        W 4850   5.345   2.072   6.331  0.1513  0.0435  0.0510
 2086W        W 4851   6.852   6.714   0.021 -0.2050 -0.0783  0.0605
 2087W        W 4852   3.496   4.159   0.297 -0.1145  0.2547  0.0948
 2088W        W 4853   2.191   5.637   2.033  0.3448 -0.3585 -0.3093
 2089W        W 4854   8.169   0.527   6.671  0.1600 -0.3040 -0.2695
 2090W        W 4855   6.157   2.114   0.611  0.0317  0.2518 -0.1022
 2091W        W 4856   3.909   8.305   6.976 -0.0116  0.1629 -0.0708
 2092W        W 4857   3.550   0.292   5.493 -0.0523  0.2357  0.3328
 2093W        W 4858   1.370   7.388   6.608 -0.0816 -0.5199  0.0949
 2094W        W 4859   6.693   4.407   0.199  0.3212  0.2400  0.2350
 2095W        W 4860   3.293   1.455   5.594 -0.1039  0.1199  0.2643
 2096W        W 4861   0.289   7.900   1.460  0.3350  0.1273  0.0280
 2097W        W 4862   3.072   7.953   6.381 -0.3239  0.0283 -0.1275
 2098W        W 4863   6.725   3.273   1.334  0.0108  0.0141  0.1938
 2099W        W 4864   6.309   0.983   6.406 -0.2826  0.1047  0.0307
 2100W        W 4865   0.913   8.117   6.191  0.0758  0.0668 -0.2834
 2101W        W 4866   2.189   7.264   1.023 -0.4397 -0.2048 -0.1771
 2102W        W 4867   2.640   7.403   1.929 -0.2567 -0.0197 -0.2875
 2103W        W 4868   3.104   0.144   0.218  0.1364  0.0253  0.2325
 2104W        W 4869   3.064   6.223   5.113 -0.1074 -0.3615  0.0850
 2105W        W 4870   4.885   8.415   6.321 -0.1768  0.0291  0.0884
 2106W        W 4871   5.963   5.969   0.649  0.3413  0.1573  0.3463
 2107W        W 4872   4.674   6.105   1.195  0.0287 -0.2593 -0.3007
 2108W        W 4873   3.833   3.615   1.141 -0.0221 -0.0546  0.0664
 2109W        W 4874   8.878   6.512   1.962 -0.0177 -0.1198  0.1241
 2110W        W 4875   4.436   4.066   0.634  0.2431 -0.0069  0.0222
 2111W        W 4876   3.354   4.135   5.343  0.1810  0.0057  0.0592
 2112W        W 4877   9.088   3.969   5.997 -0.3209 -0.3882 -0.1455
 2113W        W 4878   1.454   8.709   5.460  0.2233 -0.0586 -0.0099
 2114W        W 4879   6.606   5.183   0.992  0.0452 -0.0208  0.4205
 2115W        W 4880   9.014   1.497   0.391 -0.2129  0.1015 -0.2060
 2116W        W 4881   1.602   4.399   0.853  0.1339 -0.0089  0.2605
 2117W        W 4882   5.049   8.228   5.884 -0.3736 -0.1172  0.1168
 2118W        W 4883   4.786   6.837   6.664 -0.0316  0.0097  0.0828
 2119W        W 4884   0.666   2.431   6.811 -0.1212  0.1820  0.1262
 2120W        W 4885   7.549   2.210   5.765  0.1223  0.2176  0.0680
 2121W        W 4886   3.542   7.342   5.547  0.0240 -0.2954  0.0902
 2122W        W 4887   3.656   5.988   1.342  0.0950 -0.0496  0.0847
 2123W        W 4888   1.813   8.773   1.110 -0.1987 -0.0746  0.1405
 2124W        W 4889   7.343   2.628   0.335  0.1160  0.0165  0.0069
 2125W        W 4890   8.146   0.933   1.311  0.1107 -0.2353  0.0673
 2126W        W 4891   5.480   6.854   6.240  0.0662  0.1764 -0.0920
 2127W        W 4892   5.921   8.860   5.679 -0.0670  0.1380 -0.0932
 2128W        W 4893   9.025   2.211   0.473 -0.1387 -0.1951 -0.1868
 2129W        W 4894   5.993   2.345   6.848 -0.2323 -0.1223  0.1555
 2130W        W 4895   7.210   1.570   5.309  0.2904 -0.0607  0.0533
 2131W        W 4896   3.233   9.131   6.175  0.1541 -0.2935 -0.1772
 2132W        W 4897   8.292   2.694   1.636  0.1088 -0.0676  0.0172
 2133W        W 4898   1.577   4.496   5.992  0.0609  0.0787 -0.1171
 2134W        W 4899   5.644   2.095   0.805 -0.5597 -0.0191 -0.3002
 2135W        W 4900   7.330   2.066   0.990 -0.0509  0.0573  0.0578
 2136W        W 4901   5.863   7.702   0.366  0.3261  0.0739 -0.2159
 2137W        W 4902   1.413   4.021   6.078  0.1103 -0.1355 -0.0216
 2138W        W 4903   1.651   7.406   1.235 -0.1681 -0.1318  0.0147
 2139W        W 4904   2.090   7.862   6.952  0.3026 -0.1230  0.2391
 2140W        W 4905   1.958   4.689   0.700 -0.1754  0.0513  0.0790
 2141W        W 4906   2.899   3.049   1.705  0.0609  0.1487 -0.1145
 2142W        W 4907   1.086   2.028   0.481  0.2179 -0.1184 -0.0542
 2143W        W 4908   7.463   1.590   0.852 -0.0596  0.2000  0.1524
 2144W        W 4909   5.114   2.455   0.119  0.0751  0.2537 -0.2246
 2145W        W 4910   1.896   6.337   7.040  0.0575 -0.0353 -0.2210
 2146W        W 4911   6.461   0.666   0.266 -0.2529 -0.0938  0.4079
 2147W        W 4912   0.275   4.993   0.244 -0.1728  0.0767 -0.3112
 2148W        W 4913   3.487   3.645   0.275 -0.1123  0.0819  0.0006
 2149W        W 4914   5.488   0.117   0.289 -0.0905 -0.0917 -0.2139
 2150W        W 4915   2.565   7.457   5.213  0.0814 -0.2693  0.0720
 2151W        W 4916   5.056   3.443   6.804  0.1626  0.1904  0.2793
 2152W        W 4917   7.775   6.043   1.312  0.2259  0.1620 -0.0014
 2153W        W 4918   7.910   2.655   5.638  0.0814  0.1046 -0.0388
 2154W        W 4919   7.119   2.887   5.970  0.1365  0.3107  0.0292
 2155W        W 4920   1.701   5.436   0.553 -0.1846 -0.1541 -0.2114
 2156W        W 4921   1.242   8.505   0.540 -0.0062  0.1232  0.2202
 2157W        W 4922   0.932   0.677   5.386  0.0087  0.1469 -0.1011
 2158W        W 4923   1.019   2.063   6.785  0.1161  0.2116 -0.2912
 2159W        W 4924   1.417   0.350   1.087  0.2237  0.3325  0.2394
 2160W        W 4925   2.286   2.294   1.027 -0.2044  0.0194 -0.2176
 2161W        W 4926   0.032   8.440   0.901 -0.0297  0.3117 -0.0349
 2162W        W 4927   4.557   8.334   6.940  0.2971 -0.1719 -0.0579
 2163W        W 4928   4.630   8.842   6.481 -0.0298 -0.0732  0.2739
 2164W        W 4929   0.243   8.273   0.468 -0.1017  0.0949  0.1109
 2165W        W 4930   2.967   6.689   1.598  0.2128 -0.0057 -0.1599
 2166W        W 4931   0.931   7.411   0.331 -0.0534  0.0546  0.2270
 2167W        W 4932   6.278   5.021   5.362  0.0203 -0.3530  0.2345
 2168W        W 4933   2.919   1.133   6.098  0.0099 -0.1507 -0.2966
 2169W        W 4934   6.569   4.834   6.224  0.0729  0.1516 -0.0429
 2170W        W 4935   8.531   2.304   1.399 -0.3246 -0.1283 -0.1184
 2171W        W 4936   3.072   5.126   6.846 -0.2113 -0.1536  0.0672
 2172W        W 4937   5.475   7.969   0.098  0.0272 -0.0233 -0.2409
 2173W        W 4938   5.747   1.329   1.079  0.2264 -0.1131  0.0316
 2174W        W 4939   2.899   0.673   6.284 -0.1462 -0.0972  0.2225
 2175W        W 4940   1.239   5.966   1.613 -0.0261  0.1094  0.2782
 2176W        W 4941   3.143   2.192   0.884  0.1202  0.3696  0.0845
 2177W        W 4942   2.283   7.017   0.578 -0.3328  0.1021  0.0171
 2178W        W 4943   0.808   7.752   0.725 -0.2429  0.0706  0.2738
 2179W        W 4944   2.948   4.520   6.032 -0.1462  0.1683 -0.1209
 2180W        W 4945   5.645   4.733   1.784  0.0582 -0.0279 -0.0843
 2181W        W 4946   5.668   5.386   0.041  0.4378  0.2265 -0.0962
 2182W        W 4947   2.685   2.212   1.332  0.1966  0.2156 -0.4902
 2183W        W 4948   0.771   3.124   6.485  0.0102 -0.5234 -0.1790
 2184W        W 4949   3.282   6.875   1.179  0.1129 -0.1537  0.1104
 2185W        W 4950   5.007   7.644   1.079 -0.0274 -0.0673  0.1281
 2186W        W 4951   1.615   4.813   1.100 -0.1684 -0.0459  0.0898
 2187W        W 4952   6.874   2.728   0.189 -0.0398  0.0491 -0.0761
 2188W        W 4953   0.851   1.614   7.013  0.0302 -0.0863 -0.1076
 2189W        W 4954   0.219   2.790   0.110 -0.2014 -0.0234  0.0180
 2190W        W 4955   4.090   0.511   5.721 -0.1271 -0.1630 -0.1188
 2191W        W 4956   7.144   5.849   1.482  0.1212  0.3937  0.2321
 2192W        W 4957   2.834   4.135   5.660 -0.1276  0.0593  0.2610
 2193W        W 4958   8.094   5.459   6.940  0.4022 -0.0265 -0.1060
 2194W        W 4959   0.293   4.616   5.675  0.2257 -0.1632 -0.1334
 2195W        W 4960   6.008   3.001   1.095 -0.1707 -0.0820  0.0571
 2196W        W 4961   0.254   3.058   6.591  0.3493 -0.0562  0.0533
 2197W        W 4962   2.538   3.702   6.248  0.0977 -0.2064 -0.2376
 2198W        W 4963   0.925   5.365   0.959  0.2083 -0.0722  0.0174
 2199W        W 4964   2.384   4.230   5.451  0.0455  0.3692 -0.1339
 2200W        W 4965   5.435   4.275   5.608 -0.3197 -0.1432 -0.3650
 2201W        W 4966   3.491   4.672   1.156 -0.1238  0.1720 -0.0874
 2202W        W 4967   2.851   8.879   6.011  0.2264  0.2421 -0.2878
 2203W        W 4968   0.040   1.807   0.037 -0.0474 -0.2495  0.0194
 2204W        W 4969   3.008   3.638   6.522  0.0988  0.4119 -0.0912
 2205W        W 4970   3.775   3.070   6.352  0.0120 -0.1442 -0.0500
 2206W        W 4971   4.836   3.999   0.313 -0.0487  0.1766  0.2307
 2207W        W 4972   6.504   0.489   6.534  0.1504 -0.1250  0.1666
 2208W        W 4973   2.042   1.856   0.908 -0.2199 -0.0228 -0.1489
 2209W        W 4974   6.047   6.465   1.295  0.4299 -0.1808  0.1063
 2210W        W 4975   5.838   1.786   6.023  0.2136  0.0394 -0.0368
 2211W        W 4976   7.371   0.148   1.109 -0.1023  0.1935  0.2922
 2212W        W 4977   1.026   0.246   0.815 -0.3023 -0.0541 -0.1860
 2213W        W 4978   6.885   3.420   1.791  0.2838  0.1785 -0.2268
 2214W        W 4979   0.622   7.657   5.886 -0.0184  0.1238 -0.0389
 2215W        W 4980   4.726   2.154   7.010  0.0143  0.0048 -0.4685
 2216W        W 4981   3.533   5.896   0.470 -0.2528 -0.1650  0.4663
 2217W        W 4982   0.984   4.399   1.842  0.1925  0.1055  0.1845
 2218W        W 4983   1.486   6.907   6.421 -0.1197 -0.0110  0.1821
 2219W        W 4984   5.713   1.554   6.615 -0.3394 -0.1272  0.0718
 2220W        W 4985   5.256   4.396   1.082  0.0353 -0.1175  0.1841
 2221W        W 4986   1.530   5.368   0.039 -0.1082  0.3481  0.0103
 2222W        W 4987   3.302   3.726   6.031  0.2465  0.0363  0.0945
 2223W        W 4988   2.972   1.393   6.890  0.0659 -0.1387 -0.3362
 2224W        W 4989   6.740   4.315   5.928  0.1454  0.0029  0.2133
 2225W        W 4990   4.579   3.364   0.958 -0.2773 -0.0150  0.2426
 2226W        W 4991   4.073   7.209   6.840 -0.0672  0.2214 -0.5504
 2227W        W 4992   2.516   7.978   1.025 -0.0973 -0.2538  0.2190
 2228W        W 4993   5.254   5.726   6.373 -0.2035  0.3947 -0.0206
 2229W        W 4994   4.811   8.262   1.594 -0.1660 -0.1759 -0.0604
 2230W        W 4995   5.199   2.474   6.609 -0.3445  0.3479 -0.1844
 2231W        W 4996   0.970   8.533   0.122  0.0356  0.3824 -0.0229
 2232W        W 4997   4.993   5.088   5.853 -0.5210  0.1990  0.1570
 2233W        W 4998   6.536   7.399   5.747  0.0850 -0.2359 -0.0604
 2234W        W 4999   0.871   5.711   0.468  0.0042  0.2053 -0.1854
 2235W        W 5000   2.119   3.675   6.733  0.0860  0.3724 -0.3018
 2236W        W 5001   0.127   6.321   0.977  0.2508 -0.0843 -0.2007
 2237W        W 5002   2.650   6.732   0.816  0.0062 -0.1195  0.0809
 2238W        W 5003   2.090   0.779   6.578  0.0986  0.2396  0.0573
 2239W        W 5004   3.672   0.323   6.137  0.1901 -0.3991  0.2240
 2240W        W 5005   2.764   2.131   0.544  0.0934 -0.0703 -0.2074
 2241W        W 5006   3.877   0.768   0.205  0.2864  0.0241  0.3884
 2242W        W 5007   1.914   7.133   6.711  0.1298  0.1839 -0.0460
 2243W        W 5008   3.242   1.500   1.593 -0.1538  0.1594 -0.0308
 2244W        W 5009   5.656   0.801   0.629 -0.3474  0.2489 -0.2201
 2245W        W 5010   7.090   5.493   0.573 -0.1768 -0.2866  0.2059
 2246W        W 5011   4.079   2.205   1.423 -0.2289  0.0039  0.0876
 2247W        W 5012   4.555   1.890   6.218  0.2299 -0.0343  0.0936
 2248W        W 5013   0.763   5.480   6.679 -0.0795 -0.1248  0.2048
 2249W        W 5014   9.129   4.792   6.631  0.2003 -0.1472  0.0740
 2250W        W 5015   5.531   7.886   6.633 -0.0254  0.0475 -0.0413
 2251W        W 5016   6.737   2.997   6.378  0.3673  0.1864  0.0007
 2252W        W 5017   3.860   9.083   1.278 -0.0166 -0.1383  0.0025
 2253W        W 5018   1.893   3.222   6.543  0.1163 -0.2060  0.1880
 2254W        W 5019   4.459   0.658   5.064 -0.0918 -0.0686  0.1583
 2255W        W 5020   7.304   2.542   1.213  0.1914  0.1987 -0.1471
 2256W        W 5021   7.797   0.740   0.352 -0.1488 -0.2353 -0.1409
 2257W        W 5022   0.545   0.146   0.923 -0.1186 -0.0579 -0.2494
 2258W        W 5023   8.522   5.183   0.835  0.0344 -0.0681  0.1184
 2259W        W 5024   7.421   5.938   0.948  0.1043  0.1945  0.0111
 2260W        W 5025   1.193   6.462   1.727  0.1387 -0.1832  0.4645
 2261W        W 5026   2.124   3.873   0.181  0.3116 -0.1118 -0.0006
 2262W        W 5027   3.172   7.992   5.651 -0.1348 -0.2611 -0.1689
 2263W        W 5028   7.790   4.752   1.014 -0.5080 -0.0468 -0.1041
 2264W        W 5029   3.664   1.463   1.354 -0.0631 -0.0393  0.2397
 2265W        W 5030   6.419   3.457   6.432 -0.4190  0.3049  0.0041
 2266W        W 5031   1.590   3.622   5.843 -0.0724 -0.1419  0.1991
 2267W        W 5032   8.806   7.214   6.531 -0.0724  0.3072 -0.1522
 2268W        W 5033   8.818   1.134   6.152  0.2342  0.0088 -0.0284
 2269W        W 5034   3.650   6.535   5.459  0.2481 -0.2901 -0.2675
 2270W        W 5035   1.286   5.693   0.818  0.2936 -0.2021 -0.1454
 2271W        W 5036   6.268   0.231   1.940 -0.1151 -0.3444  0.1840
 2272W        W 5037   7.477   5.460   1.316  0.1066  0.0640  0.0502
 2273W        W 5038   7.044   4.125   6.478  0.1163  0.1201  0.0243
 2274W        W 5039   8.215   5.529   0.481  0.1734  0.3471 -0.0680
 2275W        W 5040   3.672   8.081   5.595 -0.0357  0.2137  0.1535
 2276W        W 5041   7.504   4.865   0.600  0.3693 -0.0843  0.0449
 2277W        W 5042   8.120   5.129   1.803 -0.0903 -0.1620  0.3738
 2278W        W 5043   8.320   1.313   5.036  0.2436  0.0695 -0.0005
 2279W        W 5044   1.246   4.837   5.728 -0.1582  0.1034 -0.2133
 2280W        W 5045   4.492   3.957   5.121 -0.0485  0.2236 -0.2844
 2281W        W 5046   4.251   2.734   0.931 -0.0576  0.0091  0.0321
 2282W        W 5047   6.740   3.835   0.880 -0.1665 -0.1054 -0.3683
 2283W        W 5048   3.087   0.564   5.389  0.2214 -0.0656  0.0623
 2284W        W 5049   3.527   5.392   1.515 -0.0117 -0.1075 -0.0512
 2285W        W 5050   0.152   7.685   0.485 -0.0869  0.1427  0.2861
 2286W        W 5051   6.715   2.544   6.149 -0.1290 -0.0957  0.2357
 2287W        W 5052   7.359   0.754   6.225  0.1474 -0.0245 -0.0086
 2288W        W 5053   7.845   2.401   0.339 -0.2457  0.3688  0.4364
 2289W        W 5054   1.019   0.084   1.251  0.0475  0.0086 -0.0450
 2290W        W 5055   8.245   4.093   0.346 -0.1844  0.1124  0.0270
 2291W        W 5056   2.565   4.015   0.504 -0.0604  0.1101 -0.1504
 2292W        W 5057   3.313   0.359   6.519  0.2165 -0.1052  0.2745
 2293W        W 5058   5.995   8.543   0.468  0.3546 -0.4158 -0.1670
 2294W        W 5059   2.714   0.280   1.313  0.3581  0.1523  0.0760
 2295W        W 5060   4.943   2.985   5.248 -0.1293  0.0361  0.1986
 2296W        W 5061   1.693   1.441   6.998  0.3225 -0.0529  0.1948
 2297W        W 5062   5.591   6.738   1.482 -0.2100 -0.0054  0.0589
 2298W        W 5063   7.648   2.793   6.064  0.1392  0.0931  0.1939
 2299W        W 5064   2.029   4.490   0.061 -0.1019 -0.1461 -0.0680
 2300W        W 5065   0.665   7.211   5.835  0.2970  0.1338  0.0328
 2301W        W 5066   8.529   8.980   6.424  0.3116  0.0575 -0.2647
 2302W        W 5067   0.080   8.352   5.647  0.0727 -0.1385  0.2198
 2303W        W 5068   2.247   7.931   5.897 -0.0298 -0.3235 -0.1305
 2304W        W 5069   4.782   1.667   0.108 -0.1418  0.2750 -0.0725
 2305W        W 5070   7.245   1.898   1.502  0.0941 -0.0200  0.1654
 2306W        W 5071   6.306   0.155   4.832 -0.2729 -0.0650 -0.0601
 2307W        W 5072   4.935   6.488   5.290  0.4117 -0.0999  0.0026
 2308W        W 5073   6.168   5.174   1.827  0.0184  0.0235 -0.0729
 2309W        W 5074   8.566   5.464   0.037  0.0008 -0.0337 -0.0650
 2310W        W 5075   7.178   5.911   6.142 -0.0064 -0.1231 -0.1350
 2311W        W 5076   3.789   0.928   0.987 -0.1010 -0.0272  0.0736
 2312W        W 5077   6.499   7.411   6.717  0.1857  0.0074 -0.0893
 2313W        W 5078   1.964   5.832   6.916  0.0757 -0.4859 -0.1183
 2314W        W 5079   7.576   1.284   6.339 -0.0849  0.2184 -0.0028
 2315W        W 5080   6.398   4.193   1.200 -0.1309  0.1018 -0.2697
 2316W        W 5081   7.140   3.186   0.260 -0.0506 -0.0714 -0.4284
 2317W        W 5082   2.171   7.556   1.899  0.2796  0.1854 -0.0913
 2318W        W 5083   5.702   2.517   6.457  0.0037 -0.3559 -0.0847
 2319W        W 5084   9.006   2.347   1.290  0.1870 -0.0867 -0.2904
 2320W        W 5085   7.786   4.881   6.547  0.2053 -0.0922  0.2872
 2321W        W 5086   1.075   0.752   0.949 -0.1302  0.3611  0.2575
 2322W        W 5087   8.014   1.801   5.848 -0.2970  0.2352 -0.0361
 2323W        W 5088   0.011   6.144   5.346  0.0967  0.1889  0.2543
 2324W        W 5089   4.595   4.026   5.896  0.0123 -0.1109  0.1948
 2325W        W 5090   5.064   2.805   1.472  0.0252  0.1581  0.2756
 2326W        W 5091   2.317   5.332   6.760  0.2360  0.3276  0.1866
 2327W        W 5092   1.646   1.001   6.748 -0.0519  0.3900  0.1738
 2328W        W 5093   1.813   3.694   1.543  0.1894 -0.1033  0.1252
 2329W        W 5094   6.945   7.237   1.435  0.2287 -0.0012 -0.1791
 2330W        W 5095   8.838   7.042   7.011  0.0174 -0.1042 -0.0740
 2331W        W 5096   9.083   0.534   0.218  0.1595  0.1050  0.0596
 2332W        W 5097   1.714   7.851   0.953  0.0729 -0.2427 -0.0389
 2333W        W 5098   8.772   2.602   1.712  0.1416  0.3113  0.2439
 2334W        W 5099   4.908   7.023   0.647 -0.0451 -0.0756 -0.1063
 2335W        W 5100   8.246   7.775   6.217  0.0413  0.1451  0.1962
 2336W        W 5101   6.449   2.443   0.839 -0.1177 -0.1369  0.0806
 2337W        W 5102   8.577   9.116   1.417  0.0673 -0.2870 -0.1568
 2338W        W 5103   6.023   5.397   6.034  0.1409  0.1213  0.0912
 2339W        W 5104   8.947   2.847   1.254 -0.1950  0.0808 -0.0999
 2340W        W 5105   6.676   4.333   0.745 -0.2160 -0.1545 -0.2355
 2341W        W 5106   6.861   2.235   1.303 -0.2460 -0.4084  0.2254
 2342W        W 5107   5.981   7.347   5.606  0.2699 -0.0609  0.1141
 2343W        W 5108   6.214   5.372   7.051  0.1329 -0.0492 -0.3925
 2344W        W 5109   7.751   8.959   1.104 -0.0536  0.0633 -0.1444
 2345W        W 5110   6.051   8.732   0.902  0.1174  0.3018  0.0601
 2346W        W 5111   2.011   4.531   1.153  0.0014  0.1082  0.1291
 2347W        W 5112   7.955   2.088   6.861 -0.0503  0.2090 -0.1903
 2348W        W 5113   6.075   2.581   5.924  0.0626 -0.2967  0.2616
 2349W        W 5114   1.661   5.349   6.207 -0.2353  0.0628  0.1348
 2350W        W 5115   7.134   7.499   0.699 -0.2904 -0.2514  0.1014
 2351W        W 5116   5.514   4.873   6.508 -0.0053 -0.0579 -0.0707
 2352W        W 5117   1.060   3.258   6.870  0.1100 -0.0094 -0.1829
 2353W        W 5118   8.587   0.439   0.090 -0.0714 -0.4859  0.1258
 2354W        W 5119   2.767   1.259   0.418  0.1211  0.1137  0.0682
 2355W        W 5120   7.765   7.650   6.265 -0.0828 -0.0432  0.2477
 2356W        W 5121   3.997   3.095   5.735  0.1831  0.0874 -0.1821
 2357W        W 5122   8.276   6.430   5.693  0.1450  0.1022 -0.2359
 2358W        W 5123   7.151   2.689   6.396  0.3878  0.0478 -0.3829
 2359W        W 5124   2.967   8.546   6.962  0.0117 -0.2963  0.0863
 2360W        W 5125   6.900   3.561   6.571 -0.1030  0.0808  0.2618
 2361W        W 5126   8.463   8.529   0.469 -0.1144 -0.3456 -0.0221
 2362W        W 5127   7.588   2.338   5.280 -0.2191  0.2786  0.0204
 2363W        W 5128   7.377   5.678   0.164 -0.1386 -0.1439 -0.1874
 2364W        W 5129   1.667   4.606   6.824  0.0202  0.1273 -0.0301
 2365W        W 5130   6.591   8.328   6.192 -0.3880 -0.1097  0.1203
 2366W        W 5131   7.530   8.179   6.143 -0.2445  0.0782  0.1513
 2367W        W 5132   2.685   7.171   0.228  0.1181  0.1984 -0.3428
 2368W        W 5133   8.346   4.581   0.793 -0.1000  0.1861 -0.2024
 2369W        W 5134   1.450   8.945   6.598  0.1334  0.2331 -0.3674
 2370W        W 5135   2.968   4.290   6.945  0.1013 -0.0413  0.0219
 2371W        W 5136   4.210   3.680   0.809  0.0046  0.1847  0.0668
 2372W        W 5137   7.178   3.691   0.422  0.0042  0.0760 -0.5223
 2373W        W 5138   1.171   4.334   5.720 -0.1766  0.1263  0.0178
 2374W        W 5139   5.727   2.690   5.584  0.0219 -0.0873 -0.2043
 2375W        W 5140   7.629   5.263   6.118 -0.1037  0.0675  0.0673
 2376W        W 5141   3.646   6.498   6.723  0.1232  0.6017 -0.3061
 2377W        W 5142   7.768   8.876   5.431 -0.0571 -0.0847 -0.1443
 2378W        W 5143   8.335   6.324   6.505 -0.2134 -0.0926  0.1595
 2379W        W 5144   2.763   5.464   5.750 -0.0247 -0.2015 -0.2791
 2380W        W 5145   8.080   1.875   6.364  0.1880 -0.2038 -0.2287
 2381W        W 5146   7.782   6.723   0.643 -0.0639 -0.2995  0.0686
 2382W        W 5147   7.003   5.022   1.234  0.0501  0.1257  0.1785
 2383W        W 5148   2.685   3.455   0.389 -0.0228 -0.0397 -0.0113
 2384W        W 5149   4.146   4.476   0.709  0.2363 -0.2521  0.0062
 2385W        W 5150   1.658   4.492   5.477  0.0420 -0.0651  0.2665
 2386W        W 5151   5.419   2.191   1.800  0.0615 -0.4540 -0.1229
 2387W        W 5152   7.573   3.004   0.099 -0.0433  0.3628 -0.1823
 2388W        W 5153   7.934   7.498   0.199  0.0411  0.0636 -0.0790
 2389W        W 5154   1.963   1.596   4.708 -0.2224  0.0856 -0.4218
 2390W        W 5155   4.563   6.748   0.512  0.4081 -0.1922 -0.0546
 2391W        W 5156   5.129   6.668   0.324  0.2689  0.0403  0.0450
 2392W        W 5157   1.986   8.570   5.433 -0.0611  0.0257 -0.1426
 2393W        W 5158   0.699   0.228   6.152  0.1574 -0.1433  0.4708
 2394W        W 5159   2.552   4.814   1.777 -0.2492 -0.0158  0.0629
 2395W        W 5160   5.459   1.625   0.722 -0.1472 -0.1749  0.0144
 2396W        W 5161   3.338   7.770   0.388 -0.0994 -0.1017  0.0710
 2397W        W 5162   4.024   8.746   6.759 -0.0641  0.2618 -0.2388
 2398W        W 5163   3.777   3.048   0.186 -0.0518  0.1337 -0.1486
 2399W        W 5164   5.489   8.005   5.875  0.1283 -0.0834  0.0887
 2400W        W 5165   1.356   6.926   1.452  0.1209  0.0006  0.0292
 2401W        W 5166   4.172   6.957   0.227  0.0156  0.3260 -0.0306
 2402W        W 5167   4.828   4.199   1.404  0.0185 -0.0260  0.1735
 2403W        W 5168   6.497   1.435   5.289 -0.0001  0.0555  0.3100
 2404W        W 5169   8.093   6.154   7.014 -0.0797 -0.3724  0.1052
 2405W        W 5170   4.696   1.720   6.678  0.2619 -0.1424  0.0022
 2406W        W 5171   8.063   7.937   0.313  0.0442 -0.1224 -0.3232
 2407W        W 5172   8.403   4.078   6.932  0.0818  0.2301 -0.1069
 2408W        W 5173   8.783   1.392   7.040 -0.0381 -0.2305 -0.0253
 2409W        W 5174   4.872   0.528   5.297  0.1259  0.1301 -0.1852
 2410W        W 5175   8.840   1.746   6.704 -0.0899 -0.0527 -0.1896
 2411W        W 5176   6.816   8.888   7.055 -0.3412 -0.0735 -0.0477
 2412W        W 5177   4.871   5.618   6.037  0.0355  0.1156 -0.1724
 2413W        W 5178   5.085   8.474   0.821  0.3502 -0.2167  0.0195
 2414W        W 5179   8.752   0.934   0.202 -0.2343  0.1770  0.1054
 2415W        W 5180   6.101   3.841   6.375 -0.2532  0.1936 -0.2165
 2416W        W 5181   1.121   7.612   1.160 -0.1489 -0.0390 -0.1409
 2417W        W 5182   8.054   8.973   0.569 -0.1842  0.1052 -0.1111
 2418W        W 5183   5.979   0.867   1.523 -0.2429 -0.1089  0.1190
 2419W        W 5184   4.781   5.008   1.993  0.1373  0.0913 -0.0347
 2420W        W 5185   5.662   1.988   6.945 -0.0905 -0.1313 -0.1458
 2421W        W 5186   5.701   1.978   1.289  0.1990 -0.0653  0.2324
 2422W        W 5187   5.956   6.599   6.871 -0.2269 -0.1237 -0.1212
 2423W        W 5188   6.403   2.594   4.855 -0.0909  0.1971 -0.1522
 2424W        W 5189   6.901   0.686   0.542  0.2673  0.1889 -0.2332
 2425W        W 5190   6.550   1.428   1.185  0.1707  0.3172  0.1889
 2426W        W 5191   1.214   5.711   6.927 -0.0265  0.1759  0.1444
 2427W        W 5192   3.922   7.507   1.980  0.0889  0.1478  0.0237
 2428W        W 5193   9.135   6.078   5.988  0.0434  0.2116  0.0829
 2429W        W 5194   8.513   0.988   2.335  0.3099 -0.1426  0.1198
 2430W        W 5195   7.832   6.568   5.422  0.0359  0.1441  0.1679
 2431W        W 5196   7.293   3.172   1.826 -0.2983 -0.2024 -0.0478
 2432W        W 5197   2.473   1.624   0.531  0.3391 -0.1369  0.0520
 2433W        W 5198   0.439   8.161   1.950  0.1273  0.1082  0.0912
 2434W        W 5199   4.293   8.140   0.910  0.0137  0.0059 -0.1098
 2435W        W 5200   3.216   5.132   5.844  0.2789 -0.3948 -0.2286
 2436W        W 5201   0.249   6.105   7.066 -0.1734 -0.1277  0.1704
 2437W        W 5202   0.718   5.840   7.057 -0.0587  0.1847  0.0943
 2438W        W 5203   2.086   8.086   0.441 -0.1693 -0.1098  0.0332
 2439W        W 5204   0.619   3.437   6.063  0.1836 -0.1533 -0.0230
 2440W        W 5205   0.216   1.974   1.552  0.1396  0.1181 -0.2039
 2441W        W 5206   0.606   7.816   0.238  0.1446  0.0346  0.1834
 2442W        W 5207   2.925   4.211   1.250 -0.1077 -0.1527  0.1821
 2443W        W 5208   3.372   5.245   0.418 -0.2373  0.3023  0.0641
 2444W        W 5209   5.299   7.155   6.691 -0.3341  0.1002  0.2056
 2445W        W 5210   8.018   2.158   5.473 -0.1045  0.0982 -0.3978
 2446W        W 5211   4.146   7.698   1.321  0.3192  0.2269  0.1333
 2447W        W 5212   6.276   2.061   4.879 -0.0505 -0.1964  0.1258
 2448W        W 5213   7.646   3.434   1.370  0.0962  0.4048 -0.0251
 2449W        W 5214   5.480   3.687   5.687 -0.2510 -0.0478  0.0404
 2450W        W 5215   2.391   4.761   5.967  0.0441 -0.1579  0.1341
 2451W        W 5216   1.820   6.128   6.512  0.0189  0.0440  0.4784
 2452W        W 5217   4.461   0.324   5.486 -0.1223  0.0491 -0.0703
 2453W        W 5218   8.950   8.761   0.436 -0.0435  0.0577 -0.0806
 2454W        W 5219   2.541   2.860   6.023 -0.0082  0.0666 -0.0383
 2455W        W 5220   4.275   8.690   1.206  0.0669  0.2010  0.4985
 2456W        W 5221   7.837   0.533   1.245  0.0037  0.2470 -0.3298
 2457W        W 5222   5.810   1.305   0.561 -0.0662  0.1014 -0.0091
 2458W        W 5223   4.494   3.937   1.108  0.2075  0.2236 -0.4299
 2459W        W 5224   1.279   0.784   1.919  0.0093 -0.4036 -0.0448
 2460W        W 5225   2.839   0.215   6.419 -0.1767  0.1857  0.3339
 2461W        W 5226   7.094   2.317   6.716 -0.0804 -0.0985 -0.3085
 2462W        W 5227   8.831   7.757   0.302  0.0873 -0.0330  0.2566
 2463W        W 5228   8.152   1.872   2.482 -0.0627  0.1171  0.1449
 2464W        W 5229   7.745   0.658   5.512 -0.1929  0.0854  0.0393
 2465W        W 5230   4.777   0.655   0.528  0.1418 -0.7037 -0.0306
 2466W        W 5231   0.960   4.649   6.116  0.1517  0.3041 -0.1927
 2467W        W 5232   5.677   7.269   0.516 -0.2218  0.0609 -0.1117
 2468W        W 5233   4.858   5.223   1.469 -0.0426 -0.2856 -0.1040
 2469W        W 5234   0.613   8.767   6.034  0.1021 -0.1483  0.1697
 2470W        W 5235   7.557   1.951   0.491 -0.1737 -0.1018  0.2064
 2471W        W 5236   7.764   7.671   1.137  0.0628 -0.0032  0.0625
 2472W        W 5237   3.689   8.753   5.950 -0.3443 -0.0189  0.0924
 2473W        W 5238   8.469   7.296   6.175  0.0636 -0.0182 -0.2358
 2474W        W 5239   3.988   2.821   1.317  0.5963  0.3529 -0.1736
 2475W        W 5240   6.594   2.960   5.904 -0.0267 -0.1342  0.2278
 2476W        W 5241   7.961   4.833   7.036  0.0787  0.2665 -0.1262
 2477W        W 5242   7.068   1.584   6.225  0.0203 -0.0165 -0.2349
 2478W        W 5243   2.391   4.830   0.918 -0.0580  0.0561 -0.1570
 2479W        W 5244   1.444   6.001   1.160  0.0485 -0.0741  0.1082
 2480W        W 5245   0.757   3.095   0.389 -0.0697  0.1529  0.1409
 2481W        W 5246   1.166   8.214   1.310 -0.0103 -0.3502 -0.1709
 2482W        W 5247   2.475   5.590   6.198 -0.1671 -0.3819 -0.1108
 2483W        W 5248   0.531   4.990   6.733 -0.0054 -0.1288  0.1246
 2484W        W 5249   1.178   2.930   0.651 -0.1710 -0.1421 -0.0621
 2485W        W 5250   2.052   7.684   1.311 -0.1175 -0.0445 -0.0362
 2486W        W 5251   8.568   7.693   0.880  0.0090 -0.1499 -0.2275
 2487W        W 5252   0.219   7.240   6.075 -0.0939  0.0082 -0.0646
 2488W        W 5253   6.961   8.710   0.561 -0.0606 -0.3503  0.4473
 2489W        W 5254   4.701   9.039   1.909  0.2298  0.0449 -0.1804
 2490W        W 5255   7.558   1.857   6.170  0.0292  0.1554  0.2107
 2491W        W 5256   1.274   1.156   0.742 -0.1735 -0.2251 -0.0217
 2492W        W 5257   0.807   0.855   1.787  0.1170 -0.3718  0.1248
 2493W        W 5258   1.053   7.099   6.206  0.2980  0.2562 -0.3530
 2494W        W 5259   7.756   1.664   4.595  0.1038 -0.0192  0.1965
 2495W        W 5260   8.987   8.819   5.985 -0.2780  0.1128 -0.2169
 2496W        W 5261   0.881   6.371   5.480 -0.0840  0.1937 -0.2453
 2497W        W 5262   3.472   7.237   6.593 -0.0021  0.2260  0.0091
 2498W        W 5263   0.713   1.266   1.479 -0.3333 -0.1246 -0.1244
 2499W        W 5264   4.529   0.811   5.670 -0.1625  0.0424  0.1453
 2500W        W 5265   0.610   2.585   1.290 -0.3331  0.0900  0.2435
 2501W        W 5266   4.456   2.312   5.930 -0.1698 -0.2518  0.0883
 2502W        W 5267   1.404   2.804   1.576  0.3369 -0.3425  0.1831
 2503W        W 5268   5.884   3.540   6.021  0.2046  0.2536 -0.3832
 2504W        W 5269   8.616   1.400   1.103  0.1120 -0.1240  0.1114
 2505W        W 5270   6.384   3.450   5.878 -0.4591  0.1156 -0.1415
 2506W        W 5271   1.453   6.975   2.517  0.1215  0.0144 -0.0447
 2507W        W 5272   3.071   8.187   0.766  0.2108 -0.1856  0.1800
 2508W        W 5273   6.436   2.239   6.484  0.2685  0.1869 -0.2831
 2509W        W 5274   7.836   4.456   6.186  0.0058  0.1503 -0.0902
 2510W        W 5275   0.583   1.995   5.851 -0.0358 -0.0342  0.1326
 2511W        W 5276   0.524   7.248   6.502  0.2026  0.1002  0.1471
 2512W        W 5277   7.195   6.270   1.752 -0.2225  0.3127 -0.1688
 2513W        W 5278   5.938   1.058   0.179 -0.2596 -0.2855 -0.2259
 2514W        W 5279   2.522   3.329   5.887 -0.6487  0.0902 -0.2292
 2515W        W 5280   7.505   1.546   5.762 -0.0567 -0.0220 -0.1471
 2516W        W 5281   1.785   5.854   1.479 -0.1188 -0.1482 -0.1805
 2517W        W 5282   4.745   1.375   5.609  0.3120 -0.0931 -0.0044
 2518W        W 5283   5.769   9.063   4.806  0.0886 -0.1403  0.1493
 2519W        W 5284   2.749   7.559   1.136  0.3114 -0.0241 -0.0272
 2520W        W 5285   3.756   3.995   6.089  0.2858  0.0747  0.3322
 2521W        W 5286   0.811   1.438   6.514  0.4241 -0.1234 -0.0261
 2522W        W 5287   1.829   6.469   5.846  0.4195  0.0380 -0.1310
 2523W        W 5288   4.331   7.577   6.636  0.1574  0.2037  0.1922
 2524W        W 5289   4.851   8.658   0.127  0.0487 -0.1114  0.0242
 2525W        W 5290   9.111   5.501   6.027  0.2405 -0.0047  0.2408
 2526W        W 5291   5.529   7.549   5.682  0.1773  0.1627  0.1076
 2527W        W 5292   2.463   2.052   0.123  0.1914 -0.1489 -0.0332
 2528W        W 5293   1.008   6.576   6.376  0.1056  0.1544 -0.1088
 2529W        W 5294   2.327   6.791   1.316 -0.0402 -0.0459  0.0866
 2530W        W 5295   2.101   8.877   0.216  0.1183 -0.2573 -0.0072
 2531W        W 5296   3.292   5.643   5.779  0.0768 -0.0861  0.0123
 2532W        W 5297   8.054   2.512   1.261 -0.1490  0.1229 -0.0783
 2533W        W 5298   6.168   1.533   6.328  0.0585 -0.0192 -0.1766
 2534W        W 5299   7.004   5.015   0.655 -0.2297 -0.2600  0.3158
 2535W        W 5300   5.327   2.331   5.475  0.0412  0.0583 -0.2244
 2536W        W 5301   2.470   7.151   5.546  0.4677  0.0875  0.0468
 2537W        W 5302   8.479   5.882   6.886 -0.2581 -0.1306  0.3348
 2538W        W 5303   2.079   1.128   6.135 -0.0371 -0.0557 -0.1458
 2539W        W 5304   2.093   3.462   6.166 -0.0177 -0.2144 -0.5459
 2540W        W 5305   4.629   2.538   0.404 -0.0639 -0.1450 -0.0141
 2541W        W 5306   4.999   2.277   5.842  0.0822  0.1171  0.1643
 2542W        W 5307   4.683   2.567   6.720  0.1036  0.0584  0.1645
 2543W        W 5308   4.583   8.260   0.468  0.0957  0.1960  0.1511
 2544W        W 5309   7.155   8.650   6.674  0.2532  0.1212  0.0628
 2545W        W 5310   3.667   6.413   0.332  0.0517 -0.0454 -0.2968
 2546W        W 5311   1.386   0.279   4.931 -0.1409 -0.0341 -0.0730
 2547W        W 5312   2.420   8.442   0.418 -0.0925  0.0700  0.1796
 2548W        W 5313   5.796   1.024   6.457  0.0341 -0.0287  0.1836
 2549W        W 5314   8.584   0.776   6.780  0.2966 -0.1480  0.0864
 2550W        W 5315   1.812   5.647   1.049  0.1446 -0.2483  0.1171
 2551W        W 5316   4.084   2.128   5.671 -0.1571  0.3356 -0.1260
 2552W        W 5317   4.583   0.114   0.724 -0.2522 -0.0604 -0.1436
 2553W        W 5318   5.173   1.602   6.450 -0.0246 -0.1015  0.0316
 2554W        W 5319   3.122   7.921   1.269  0.0648  0.2407 -0.0721
 2555W        W 5320   7.672   8.840   0.228 -0.3679 -0.4574 -0.1548
 2556W        W 5321   9.003   1.042   1.070  0.1251 -0.0198  0.0723
 2557W        W 5322   6.417   2.554   0.190  0.2975 -0.0572 -0.1903
 2558W        W 5323   6.575   6.534   1.022  0.0567  0.1685  0.0078
 2559W        W 5324   3.062   1.761   5.202 -0.0929 -0.0576 -0.1435
 2560W        W 5325   4.806   5.802   0.218 -0.0355  0.1924 -0.1364
 2561W        W 5326   5.670   2.902   6.072 -0.4246  0.1384 -0.1539
 2562W        W 5327   5.915   8.226   0.861 -0.0786 -0.2424  0.1344
 2563W        W 5328   1.281   0.703   0.022  0.0181  0.1043  0.2946
 2564W        W 5329   5.673   1.864   0.367  0.2873  0.0941  0.0318
 2565W        W 5330   6.927   2.482   5.068 -0.0431 -0.1580 -0.0724
 2566W        W 5331   9.067   5.406   0.777  0.2558 -0.3068  0.3581
 2567ION     NA 5332   3.196   6.497   6.405  0.2093 -0.2000  0.0845
 2568ION     NA 5333   7.099   1.074   0.313  0.2286  0.8459 -0.3587
 2569ION     NA 5334   1.969   3.558   5.731  0.1838  0.3345 -0.2544
 2570ION     NA 5335   5.068   0.891   6.984  0.4973 -0.0192 -0.0981
 2571ION     NA 5336   4.537   4.453   5.828 -0.3140 -0.1298 -0.1153
 2572ION     NA 5337   3.110   4.079   6.592  0.3878 -0.2191 -0.1859
 2573ION     NA 5338   8.936   0.479   6.878 -0.1375  0.0500 -0.6148
 2574ION     NA 5339   2.693   1.928   6.039 -0.0657 -0.1479 -0.1899
 2575ION     NA 5340   8.881   1.837   0.645 -0.2421  0.1900 -0.2688
 2576ION     NA 5341   0.879   0.824   0.188  0.2995 -0.2455  0.2737
 2577ION     NA 5342   2.630   4.526   5.696 -0.0793 -0.0085 -0.5415
 2578ION     NA 5343   4.499   6.684   0.116  0.2164 -0.1839  0.4489
 2579ION     NA 5344   2.617   6.992   1.609  0.0428 -0.0095 -0.0955
 2580ION     NA 5345   4.592   1.119   0.625  0.0094 -0.1980  0.2228
 2581ION     NA 5346   4.401   6.316   6.389 -0.7256  0.1851 -0.2296
 2582ION     NA 5347   2.370   8.374   5.590  0.2235 -0.1167 -0.0770
 2583ION     NA 5348   2.507   6.138   0.348  0.2548 -0.4265 -0.1065
 2584ION     NA 5349   8.455   2.319   5.984  0.0269  0.1146 -0.2069
 2585ION     NA 5350   7.440   6.000   6.569 -0.1416  0.1285  0.2133
 2586ION     NA 5351   6.751   1.538   0.783 -0.3309  0.3095 -0.1947
 2587ION     NA 5352   6.228   2.026   5.605  0.1368 -0.1116  0.4057
 2588ION     NA 5353   0.170   4.185   5.683 -0.0342  0.0320 -0.1138
 2589ION     NA 5354   8.109   4.104   0.769  0.3048 -0.0924 -0.1162
 2590ION     NA 5355   8.216   2.800   6.478  0.1946 -0.4830 -0.2647
 2591ION     NA 5356   0.109   7.270   6.541  0.1021  0.5612  0.0612
 2592ION     CL 5357   2.814   3.478   6.861 -0.1787  0.4231 -0.0078
 2593ION     CL 5358   4.447   6.947   6.893  0.4402 -0.0221  0.1593
 2594ION     CL 5359   0.761   1.267   0.179 -0.1088 -0.1526 -0.4242
 2595ION     CL 5360   6.894   2.111   0.918  0.1836  0.1184 -0.0136
 2596ION     CL 5361   1.367   2.873   5.847  0.2614  0.0721  0.0074
 2597ION     CL 5362   5.806   5.773   6.288  0.1794 -0.0491 -0.2038
 2598ION     CL 5363   8.644   2.103   0.643 -0.1153  0.1470 -0.4946
 2599ION     CL 5364   4.527   3.632   6.035 -0.2444 -0.1437  0.2079
 2600ION     CL 5365   6.750   2.196   5.920  0.1760  0.1109  0.3840
 2601ION     CL 5366   7.953   2.653   6.318 -0.2533 -0.1421 -0.5204
 2602ION     CL 5367   7.597   7.332   7.048  0.0683 -0.2437  0.1495
 2603ION     CL 5368   6.144   4.052   0.884  0.0925  0.1835 -0.1082
 2604ION     CL 5369   6.045   4.258   6.417  0.0171  0.0136  0.3874
 2605ION     CL 5370   6.788   0.973   0.239  0.1261  0.0528 -0.5726
 2606ION     CL 5371   8.850   9.064   6.712  0.5027  0.1889  0.1159
 2607ION     CL 5372   4.397   2.487   6.309 -0.1639  0.0552 -0.3983
 2608ION     CL 5373   0.649   6.202   0.205  0.1889 -0.0854  0.9095
 2609ION     CL 5374   4.463   5.695   0.519 -0.0890 -0.3014  0.1952
 2610ION     CL 5375   4.523   8.795   6.871  0.3189  0.0735 -0.4854
 2611ION     CL 5376   1.252   6.333   1.005 -0.1797 -0.1781  0.0825
 2612ION     CL 5377   6.209   5.068   6.268  0.1030 -0.3858 -0.1599
 2613ION     CL 5378   4.085   1.172   0.229 -0.1647 -0.2447 -0.1074
 2614ION     CL 5379   8.956   0.837   6.922  0.1088  0.0143  0.4603
 2615ION     CL 5380   5.022   8.097   1.233  0.3336 -0.6423  0.0126
 2616ION     CL 5381   8.644   7.795   6.422 -0.1462 -0.3307  0.0145
   9.13861   9.13861   7.06918
