assembly
 5381
    1ALA     BB    1   0.810   8.624   5.008 -0.0768 -0.0251 -0.3465
    1ALA    SC1    2   1.047   8.746   5.050 -0.3271  0.3894 -0.0607
    2LEU     BB    3   0.725   8.505   4.673 -0.2255 -0.2046  0.0458
    2LEU    SC1    4   0.861   8.173   4.623 -0.5132  0.3184  0.0799
    3ALA     BB    5   0.567   8.705   4.411  0.0626 -0.2378 -0.1482
    3ALA    SC1    6   0.313   8.617   4.428  0.0207 -0.0931  0.0069
    4LEU     BB    7   0.749   8.956   4.499 -0.1171  0.3314  0.3038
    4LEU    SC1    8   0.586   9.104   4.223  0.2190  0.1011 -0.2684
    5ALA     BB    9   1.084   8.773   4.488 -0.1340 -0.1517 -0.3695
    5ALA    SC1   10   1.350   8.810   4.471 -0.1188 -0.1217 -0.1060
    6LEU     BB   11   0.982   8.648   4.141  0.3528  0.0481 -0.1943
    6LEU    SC1   12   0.951   8.300   4.235  0.0572  0.1415 -0.1030
    7ALA     BB   13   0.917   8.897   4.005 -0.0536  0.1812 -0.3355
    7ALA    SC1   14   0.889   8.755   3.777  0.5716 -0.1200 -0.2470
    8LEU     BB   15   1.177   9.133   4.013 -0.0580  0.0603 -0.1080
    8LEU    SC1   16   1.088   9.274   3.728 -0.1849  0.2489 -0.0229
    9ALA     BB   17   1.386   8.991   3.926  0.0694  0.3508 -0.0778
    9ALA    SC1   18   1.566   8.928   4.118 -0.2286 -0.0489  0.0862
   10LEU     BB   19   1.323   8.728   3.723  0.2302 -0.0664 -0.0601
   10LEU    SC1   20   1.544   8.450   3.785  0.0483 -0.5319  0.0286
   11ALA     BB   21   1.126   8.879   3.474 -0.1311 -0.1147  0.0882
   11ALA    SC1   22   0.921   8.743   3.363  0.0193 -0.1837 -0.1105
   12LEU     BB   23   1.392   9.125   3.442 -0.1590 -0.2468  0.4137
   12LEU    SC1   24   1.181   9.403   3.294 -0.2512  0.0045  0.1646
   13ALA     BB   25   1.607   8.906   3.358 -0.2613  0.0026  0.1413
   13ALA    SC1   26   1.740   8.766   3.547  0.0293  0.4365  0.2748
   14LEU     BB   27   1.542   8.653   3.151 -0.0395  0.2562  0.0275
   14LEU    SC1   28   1.710   8.406   3.367 -0.0657 -0.0474 -0.2956
   15ALA     BB   29   1.429   8.867   2.952  0.2580 -0.3839  0.4707
   15ALA    SC1   30   1.183   8.775   3.015  0.0037  0.0869  0.2169
   16LEU     BB   31   1.663   9.096   2.879 -0.1348 -0.1956 -0.1118
   16LEU    SC1   32   1.664   9.348   3.127 -0.3010 -0.0173 -0.1388
   17TRP     BB   33   1.880   8.788   2.826 -0.0834 -0.1265 -0.2774
   17TRP    SC1   34   2.013   8.978   2.596 -0.1571 -0.2284 -0.1908
   17TRP    SC2   35   1.868   9.251   2.465  0.1145  0.0111 -0.0048
   17TRP    SC3   36   2.093   9.174   2.409  0.0319 -0.1877 -0.0709
   17TRP    SC4   37   2.304   9.115   2.352 -0.0526 -0.4055 -0.1669
   17TRP    SC5   38   2.187   9.351   2.224  0.2227 -0.1279  0.0788
   18TRP     BB   39   1.713   8.713   2.593 -0.0238 -0.0047  0.1061
   18TRP    SC1   40   1.505   8.507   2.749  0.0538  0.1091  0.1013
   18TRP    SC2   41   1.364   8.242   2.600 -0.5875  0.4406  0.0795
   18TRP    SC3   42   1.347   8.292   2.838 -0.0293  0.2223  0.1856
   18TRP    SC4   43   1.308   8.335   3.057  0.2208  0.1789  0.2483
   18TRP    SC5   44   1.212   8.081   2.948  0.1958  0.1607  0.3135
   19GLY     BB   45   1.530   9.009   2.518  0.1434 -0.2696  0.0886
   20POPC   NC3   46   8.270   7.782   5.889  0.0005 -0.2905 -0.4810
   20POPC   PO4   47   8.176   8.072   5.665 -0.1948 -0.0806 -0.2653
   20POPC   GL1   48   7.838   8.308   5.441 -0.1533  0.0773  0.1061
   20POPC   GL2   49   7.838   8.228   5.232 -0.1878 -0.1588 -0.1011
   20POPC   C1A   50   7.902   8.741   5.239  0.2073 -0.1596  0.3245
   20POPC   D2A   51   7.697   9.114   5.068  0.1676  0.0276  0.0992
   20POPC   C3A   52   7.505   9.175   4.682  0.2279 -0.1427 -0.0082
   20POPC   C4A   53   7.341   9.108   4.212 -0.1765 -0.1706 -0.4128
   20POPC   C1B   54   7.884   8.323   4.795  0.0188  0.1388  0.0005
   20POPC   C2B   55   7.927   8.461   4.341  0.1920  0.3462  0.1139
   20POPC   C3B   56   7.871   8.350   3.905 -0.1988  0.1172  0.2385
   20POPC   C4B   57   7.650   8.084   3.605 -0.0946  0.0776 -0.0226
   21POPC   NC3   58   3.683   6.401   5.997  0.0900  0.1199  0.0140
   21POPC   PO4   59   3.371   6.534   5.782  0.2481 -0.2111 -0.4053
   21POPC   GL1   60   3.271   6.641   5.448  0.1875  0.1025 -0.0510
   21POPC   GL2   61   3.088   6.750   5.295  0.2154  0.0576 -0.1675
   21POPC   C1A   62   3.460   6.691   5.031 -0.1481  0.2253  0.1423
   21POPC   D2A   63   3.708   6.575   4.662  0.3733  0.1272 -0.1839
   21POPC   C3A   64   3.856   6.674   4.248  0.0463 -0.0514 -0.1403
   21POPC   C4A   65   3.651   6.640   3.841  0.1815  0.0612  0.2150
   21POPC   C1B   66   2.944   6.635   4.914 -0.0560  0.2140  0.3487
   21POPC   C2B   67   2.797   6.588   4.427  0.0088  0.0448 -0.2740
   21POPC   C3B   68   2.876   6.511   4.030 -0.0002 -0.3629  0.0745
   21POPC   C4B   69   2.603   6.644   3.708  0.0897 -0.0359  0.1502
   22POPC   NC3   70   3.645   3.081   6.019 -0.1626  0.0653  0.1126
   22POPC   PO4   71   3.391   3.316   5.798  0.2258  0.1456 -0.0770
   22POPC   GL1   72   3.501   3.358   5.391 -0.0720  0.0305  0.3107
   22POPC   GL2   73   3.752   3.404   5.356  0.0560 -0.2676 -0.1218
   22POPC   C1A   74   3.333   3.573   5.013 -0.0882 -0.2326  0.1497
   22POPC   D2A   75   3.172   3.294   4.712  0.2930 -0.0830  0.0639
   22POPC   C3A   76   3.377   3.354   4.277  0.1488  0.2252  0.0128
   22POPC   C4A   77   3.706   3.382   3.868 -0.0037  0.0849 -0.3340
   22POPC   C1B   78   4.031   3.414   5.015 -0.1423  0.4525 -0.3362
   22POPC   C2B   79   4.240   3.456   4.570  0.2001 -0.2141 -0.1683
   22POPC   C3B   80   4.199   3.485   4.119 -0.0392 -0.1012  0.3776
   22POPC   C4B   81   4.173   3.618   3.655 -0.0682  0.0624  0.0376
   23POPC   NC3   82   0.680   3.972   5.378 -0.2370  0.0491 -0.0857
   23POPC   PO4   83   0.884   4.294   5.505  0.0541  0.2152  0.4123
   23POPC   GL1   84   1.015   4.253   5.182 -0.1207 -0.1115  0.1553
   23POPC   GL2   85   0.851   4.094   4.938  0.1071  0.4573 -0.1199
   23POPC   C1A   86   1.268   4.362   4.837  0.2133 -0.0077 -0.0156
   23POPC   D2A   87   1.631   4.608   4.611 -0.2303 -0.3269 -0.0771
   23POPC   C3A   88   1.529   4.819   4.275  0.2459 -0.0791  0.0811
   23POPC   C4A   89   1.524   4.596   3.869  0.2242 -0.1859 -0.3425
   23POPC   C1B   90   0.941   4.282   4.537  0.1078  0.3151  0.4583
   23POPC   C2B   91   0.792   4.497   4.158  0.2378 -0.0404 -0.1812
   23POPC   C3B   92   0.647   4.648   3.814 -0.2269 -0.0643 -0.1401
   23POPC   C4B   93   0.688   5.087   3.635 -0.3572  0.3037  0.0031
   24POPC   NC3   94   3.476   0.019   5.076 -0.0188 -0.0725 -0.0483
   24POPC   PO4   95   3.266   0.249   5.272 -0.2180 -0.3886 -0.1833
   24POPC   GL1   96   3.255   0.539   5.035 -0.0234 -0.0054 -0.0997
   24POPC   GL2   97   2.941   0.570   4.986  0.0285 -0.4802  0.3107
   24POPC   C1A   98   3.555   0.794   4.812  0.1684  0.0570  0.0546
   24POPC   D2A   99   3.715   0.701   4.415 -0.0818  0.1705 -0.1656
   24POPC   C3A  100   3.945   0.949   4.149  0.2110 -0.0238  0.5891
   24POPC   C4A  101   4.119   1.333   3.923  0.0558  0.0362 -0.1793
   24POPC   C1B  102   3.194   0.319   4.640  0.1668 -0.1359 -0.2839
   24POPC   C2B  103   3.363   0.357   4.189  0.2624 -0.1564  0.0352
   24POPC   C3B  104   3.591   0.322   3.799 -0.2261 -0.5842 -0.0566
   24POPC   C4B  105   3.895   0.305   3.422  0.0572 -0.0667 -0.0989
   25POPC   NC3  106   8.037   7.606   4.978 -0.1239  0.0524  0.1941
   25POPC   PO4  107   7.704   7.726   5.167  0.1026  0.2544  0.0484
   25POPC   GL1  108   7.465   7.648   4.759  0.2538 -0.1172 -0.3425
   25POPC   GL2  109   7.699   7.577   4.594 -0.0624  0.2920 -0.1890
   25POPC   C1A  110   7.208   7.841   4.464 -0.0794  0.1565 -0.0559
   25POPC   D2A  111   7.125   7.775   4.020  0.0527  0.1725  0.2009
   25POPC   C3A  112   6.828   7.552   3.744 -0.1655 -0.4012 -0.0900
   25POPC   C4A  113   6.466   7.517   3.523  0.3443  0.0359 -0.0763
   25POPC   C1B  114   7.758   7.921   4.317 -0.1677 -0.2918 -0.2817
   25POPC   C2B  115   7.476   8.146   4.053  0.2501  0.0297 -0.0711
   25POPC   C3B  116   7.286   8.405   3.794 -0.1327  0.0297  0.0559
   25POPC   C4B  117   7.201   8.807   3.589  0.2944  0.0304 -0.1453
   26POPC   NC3  118   1.204   5.940   5.294 -0.2472  0.0085 -0.3091
   26POPC   PO4  119   1.175   5.570   5.188  0.1191  0.0170 -0.1300
   26POPC   GL1  120   1.497   5.572   4.963 -0.1711  0.0613  0.2454
   26POPC   GL2  121   1.661   5.754   4.929 -0.4672  0.2938  0.1947
   26POPC   C1A  122   1.666   5.503   4.520 -0.2058  0.1055  0.2871
   26POPC   D2A  123   1.517   5.272   4.121  0.3076  0.2366 -0.0918
   26POPC   C3A  124   1.560   5.336   3.687  0.1920  0.0639 -0.0551
   26POPC   C4A  125   1.823   5.337   3.349 -0.2291 -0.0397 -0.0737
   26POPC   C1B  126   1.355   5.840   4.603  0.0996 -0.0943  0.0562
   26POPC   C2B  127   1.254   6.112   4.248  0.0609  0.4413 -0.1733
   26POPC   C3B  128   1.188   6.406   3.898 -0.1998 -0.0099 -0.1403
   26POPC   C4B  129   1.425   6.353   3.504 -0.1156 -0.1057  0.3331
   27POPC   NC3  130   1.158   3.297   5.162  0.1092  0.5139  0.0292
   27POPC   PO4  131   1.072   3.666   5.221 -0.3690  0.0463 -0.2194
   27POPC   GL1  132   0.911   3.568   4.877 -0.3623 -0.1881 -0.1269
   27POPC   GL2  133   0.701   3.540   4.769 -0.3069 -0.0713  0.0321
   27POPC   C1A  134   1.195   3.607   4.537  0.1299 -0.2458 -0.1212
   27POPC   D2A  135   1.317   3.474   4.108 -0.0503 -0.3216  0.2668
   27POPC   C3A  136   1.123   3.508   3.668 -0.1179 -0.2792 -0.0486
   27POPC   C4A  137   1.440   3.696   3.379 -0.2262  0.0741  0.0550
   27POPC   C1B  138   0.867   3.161   4.531 -0.1893 -0.2306 -0.2523
   27POPC   C2B  139   0.978   3.108   4.100  0.0347  0.0585 -0.1836
   27POPC   C3B  140   0.955   3.013   3.635  0.0425 -0.0676 -0.0107
   27POPC   C4B  141   0.798   2.851   3.265  0.0140  0.2206 -0.0983
   28POPC   NC3  142   1.661   0.785   5.210  0.0589  0.0975  0.0206
   28POPC   PO4  143   1.799   1.002   5.513 -0.5593  0.1860  0.3762
   28POPC   GL1  144   1.937   1.158   5.169  0.1994 -0.2700  0.0501
   28POPC   GL2  145   2.140   1.033   5.096  0.0787  0.1258  0.2088
   28POPC   C1A  146   1.742   1.535   4.968 -0.2803  0.5147  0.0089
   28POPC   D2A  147   1.708   1.553   4.518 -0.0127 -0.0964  0.0546
   28POPC   C3A  148   1.579   1.935   4.317 -0.0194 -0.2452 -0.2681
   28POPC   C4A  149   1.393   2.249   4.087  0.1259  0.0697 -0.0756
   28POPC   C1B  150   1.730   1.055   4.815 -0.0380  0.2092  0.1480
   28POPC   C2B  151   1.492   0.988   4.415 -0.2285 -0.0508  0.2917
   28POPC   C3B  152   1.311   0.966   3.995 -0.0322  0.4773 -0.0124
   28POPC   C4B  153   1.220   1.054   3.524 -0.1507  0.1548 -0.0359
   29POPC   NC3  154   1.358   2.594   5.661  0.4555 -0.1135  0.0336
   29POPC   PO4  155   1.655   2.523   5.402  0.1827 -0.0613  0.2672
   29POPC   GL1  156   1.802   2.340   5.077  0.0238  0.0899  0.1121
   29POPC   GL2  157   1.660   2.099   4.947  0.0865 -0.3850  0.0177
   29POPC   C1A  158   2.086   2.506   4.739  0.0473  0.4129 -0.0342
   29POPC   D2A  159   2.054   2.835   4.391  0.0609 -0.1967 -0.3227
   29POPC   C3A  160   1.970   2.943   3.946  0.0194  0.2461  0.3175
   29POPC   C4A  161   2.163   3.020   3.508  0.2128  0.2139 -0.1140
   29POPC   C1B  162   1.988   2.052   4.642 -0.0644  0.0376 -0.0661
   29POPC   C2B  163   2.177   1.816   4.282  0.4188  0.0901 -0.0413
   29POPC   C3B  164   2.495   1.950   4.015 -0.3361 -0.1333 -0.0846
   29POPC   C4B  165   2.909   2.075   3.794 -0.3379  0.1198  0.0576
   30POPC   NC3  166   5.211   0.417   5.865  0.1768  0.1731 -0.4335
   30POPC   PO4  167   5.296   0.058   5.721 -0.3319 -0.1270  0.0226
   30POPC   GL1  168   5.578   0.128   5.452 -0.3226  0.2472 -0.0527
   30POPC   GL2  169   5.561   0.391   5.419 -0.0716  0.2882 -0.0660
   30POPC   C1A  170   5.948   0.259   5.167 -0.0499  0.0264  0.1631
   30POPC   D2A  171   6.422   0.223   5.082 -0.3369  0.1241  0.0242
   30POPC   C3A  172   6.520   0.533   4.752 -0.3622 -0.0497 -0.2911
   30POPC   C4A  173   6.400   0.489   4.314 -0.1941  0.1244 -0.1827
   30POPC   C1B  174   5.589   0.524   4.984  0.2392 -0.1507 -0.2571
   30POPC   C2B  175   5.489   0.523   4.519  0.1961 -0.3206  0.4630
   30POPC   C3B  176   5.256   0.426   4.129 -0.0267 -0.0635 -0.1665
   30POPC   C4B  177   5.238   0.190   3.735  0.0036 -0.2063  0.0692
   31POPC   NC3  178   8.636   0.856   5.381  0.2124 -0.0795 -0.0992
   31POPC   PO4  179   8.936   0.963   5.137  0.0319 -0.0684 -0.0185
   31POPC   GL1  180   8.867   0.962   4.751  0.1205  0.3096  0.0452
   31POPC   GL2  181   8.729   0.770   4.538 -0.1594  0.1651 -0.0687
   31POPC   C1A  182   9.149   1.031   4.379  0.1151 -0.2586 -0.2989
   31POPC   D2A  183   8.893   1.013   4.039  0.0108  0.2044 -0.2053
   31POPC   C3A  184   8.741   0.658   3.891  0.3138 -0.0594 -0.0393
   31POPC   C4A  185   8.834   0.289   3.764 -0.2822 -0.0544  0.1856
   31POPC   C1B  186   8.831   0.332   4.283  0.0476 -0.0454  0.0178
   31POPC   C2B  187   8.718  -0.125   4.356 -0.1707 -0.0560 -0.1455
   31POPC   C3B  188   8.475  -0.548   4.299  0.1381 -0.0159  0.0092
   31POPC   C4B  189   8.293  -0.980   4.093  0.0425  0.0720 -0.0522
   32POPC   NC3  190   1.086   1.738   5.635  0.2209 -0.1005 -0.1489
   32POPC   PO4  191   1.429   1.805   5.468 -0.1595 -0.2639  0.1005
   32POPC   GL1  192   1.194   1.699   5.140 -0.3461 -0.0778  0.3192
   32POPC   GL2  193   1.279   1.824   4.935  0.1620  0.2653  0.1523
   32POPC   C1A  194   1.187   1.358   4.796 -0.2108  0.2791  0.0610
   32POPC   D2A  195   0.985   1.245   4.402  0.1930  0.0784  0.3731
   32POPC   C3A  196   1.227   1.417   4.102  0.0275 -0.1750  0.0445
   32POPC   C4A  197   1.356   1.572   3.701  0.0632  0.2304  0.2138
   32POPC   C1B  198   1.080   1.727   4.477 -0.1098  0.0363 -0.5740
   32POPC   C2B  199   1.010   1.853   3.983  0.4052  0.1356 -0.2155
   32POPC   C3B  200   0.851   2.035   3.585 -0.1252  0.1745  0.0047
   32POPC   C4B  201   0.548   2.321   3.386  0.2696 -0.2282  0.1117
   33POPC   NC3  202   1.326   7.996   5.508 -0.0443 -0.0298  0.0656
   33POPC   PO4  203   1.612   8.250   5.358 -0.2977  0.1577 -0.1318
   33POPC   GL1  204   1.532   7.986   4.944 -0.2730  0.2060 -0.3906
   33POPC   GL2  205   1.707   8.082   4.732 -0.2332 -0.3221 -0.1828
   33POPC   C1A  206   1.220   7.926   4.613  0.0771 -0.0719  0.0182
   33POPC   D2A  207   1.132   7.852   4.179 -0.0939 -0.1647  0.3567
   33POPC   C3A  208   1.166   8.146   3.853  0.2763 -0.2453  0.0364
   33POPC   C4A  209   1.273   8.325   3.467  0.1341 -0.0113  0.3424
   33POPC   C1B  210   2.068   8.324   4.493  0.2258  0.0818 -0.3248
   33POPC   C2B  211   2.343   8.448   4.148  0.0843  0.0841  0.1020
   33POPC   C3B  212   2.608   8.819   4.251  0.0780  0.0217  0.0464
   33POPC   C4B  213   2.506   9.153   4.544  0.1096  0.0919  0.0419
   34POPC   NC3  214   2.081   0.149   5.268  0.0631 -0.0582 -0.0227
   34POPC   PO4  215   1.914  -0.128   5.490  0.0650 -0.0418 -0.1473
   34POPC   GL1  216   1.834  -0.260   5.113  0.1668 -0.0013 -0.1929
   34POPC   GL2  217   2.056  -0.185   4.883  0.0067 -0.2411  0.0190
   34POPC   C1A  218   1.725  -0.562   4.732  0.0554 -0.1437  0.0595
   34POPC   D2A  219   1.415  -0.743   4.370  0.0796  0.0208 -0.4624
   34POPC   C3A  220   1.702  -1.002   4.105  0.0152 -0.0934 -0.2085
   34POPC   C4A  221   1.624  -1.122   3.712  0.0710 -0.0399  0.2833
   34POPC   C1B  222   2.049  -0.276   4.453  0.0969  0.0750 -0.1894
   34POPC   C2B  223   1.902  -0.483   4.070 -0.2632  0.1268 -0.2763
   34POPC   C3B  224   2.020  -0.800   3.792  0.1493  0.0401 -0.1952
   34POPC   C4B  225   2.035  -1.103   3.352  0.0234 -0.0439 -0.0693
   35POPC   NC3  226   2.488   0.227   5.027  0.3100  0.0367  0.0230
   35POPC   PO4  227   2.746   0.142   5.303  0.1497 -0.1267  0.0150
   35POPC   GL1  228   2.941  -0.015   4.933  0.1229 -0.1233 -0.1282
   35POPC   GL2  229   2.719  -0.213   4.958  0.0909 -0.1934 -0.1632
   35POPC   C1A  230   2.973  -0.152   4.507 -0.3940 -0.2188  0.0351
   35POPC   D2A  231   3.154  -0.063   4.076 -0.0978 -0.0126 -0.0044
   35POPC   C3A  232   3.048   0.209   3.687 -0.1232 -0.2343  0.1094
   35POPC   C4A  233   3.276   0.430   3.326  0.0651  0.0272  0.0136
   35POPC   C1B  234   2.886  -0.566   4.760 -0.1089  0.2095  0.0591
   35POPC   C2B  235   3.031  -0.593   4.310  0.1692 -0.1337 -0.0295
   35POPC   C3B  236   2.895  -0.524   3.871 -0.4058 -0.0944  0.3393
   35POPC   C4B  237   2.698  -0.134   3.702 -0.0710 -0.0273 -0.2612
   36POPC   NC3  238   7.433   1.382   5.274 -0.0747  0.1448 -0.1525
   36POPC   PO4  239   7.758   1.248   5.472 -0.1876 -0.0120  0.1280
   36POPC   GL1  240   7.724   0.981   5.120 -0.2662  0.0562 -0.0452
   36POPC   GL2  241   7.440   0.856   5.128 -0.1127  0.0721  0.1854
   36POPC   C1A  242   7.539   1.249   4.818 -0.2258  0.0618 -0.1026
   36POPC   D2A  243   7.604   1.360   4.360  0.3703  0.0063  0.1481
   36POPC   C3A  244   7.380   1.005   4.087 -0.2240 -0.3093  0.0040
   36POPC   C4A  245   7.123   0.641   4.205 -0.2281  0.2708 -0.1392
   36POPC   C1B  246   7.455   0.744   4.655 -0.1664  0.5786  0.3594
   36POPC   C2B  247   7.541   0.388   4.329 -0.0853  0.1825 -0.1803
   36POPC   C3B  248   7.947   0.347   4.167 -0.4368  0.1089 -0.0160
   36POPC   C4B  249   8.343   0.104   3.993 -0.3804 -0.3975 -0.0586
   37POPC   NC3  250   2.360   7.248   6.018 -0.0155  0.3355 -0.0114
   37POPC   PO4  251   2.492   7.224   5.681 -0.0990 -0.1001  0.3653
   37POPC   GL1  252   2.666   7.406   5.455  0.0495  0.0164  0.1145
   37POPC   GL2  253   2.932   7.251   5.432  0.2302  0.0622  0.2135
   37POPC   C1A  254   2.585   7.426   5.026  0.0327  0.2318  0.3327
   37POPC   D2A  255   2.678   7.220   4.600  0.0208 -0.3797  0.4181
   37POPC   C3A  256   2.737   7.490   4.201 -0.2514 -0.1582  0.0346
   37POPC   C4A  257   2.686   7.667   3.752  0.3365  0.2442  0.0441
   37POPC   C1B  258   3.030   7.161   4.971  0.0954  0.1216  0.1689
   37POPC   C2B  259   3.123   7.039   4.519 -0.3495  0.1906  0.1721
   37POPC   C3B  260   3.271   6.691   4.250  0.0040 -0.3797  0.1605
   37POPC   C4B  261   3.518   6.338   4.252  0.0912  0.0707 -0.0911
   38POPC   NC3  262   0.238   2.891   5.205  0.0030 -0.0417  0.2312
   38POPC   PO4  263  -0.013   2.595   5.338  0.0679 -0.1715 -0.0834
   38POPC   GL1  264  -0.058   2.416   4.940  0.3769  0.1859  0.1407
   38POPC   GL2  265  -0.172   2.725   4.810  0.4046  0.0840  0.1579
   38POPC   C1A  266   0.006   2.422   4.441  0.0898  0.1707  0.0101
   38POPC   D2A  267   0.185   2.507   4.021  0.0410 -0.1037 -0.3136
   38POPC   C3A  268  -0.043   2.789   3.735  0.1645 -0.2412  0.0629
   38POPC   C4A  269  -0.403   3.030   3.628  0.0951  0.0200  0.2972
   38POPC   C1B  270  -0.381   2.712   4.322 -0.2445 -0.1128 -0.0279
   38POPC   C2B  271  -0.501   2.551   3.918 -0.0861  0.1382  0.1181
   38POPC   C3B  272  -0.369   2.326   3.571  0.4610 -0.1717 -0.1681
   38POPC   C4B  273  -0.303   1.985   3.289  0.0193 -0.0381 -0.2927
   39POPC   NC3  274   2.649   3.502   5.362  0.2863 -0.0329 -0.1766
   39POPC   PO4  275   2.444   3.811   5.439 -0.0540  0.4637  0.0486
   39POPC   GL1  276   2.482   3.973   5.067  0.1849 -0.1617 -0.1901
   39POPC   GL2  277   2.266   3.767   4.934  0.2788 -0.1721  0.0762
   39POPC   C1A  278   2.812   3.805   4.761 -0.1477  0.1465  0.0138
   39POPC   D2A  279   3.199   3.771   4.556 -0.0705  0.1206  0.1452
   39POPC   C3A  280   3.182   3.849   4.112 -0.1676  0.0918  0.1126
   39POPC   C4A  281   3.322   3.980   3.751 -0.0155  0.0785  0.0651
   39POPC   C1B  282   1.967   3.711   4.575  0.0949  0.0600 -0.3393
   39POPC   C2B  283   1.727   3.718   4.140 -0.2096 -0.1788 -0.2085
   39POPC   C3B  284   1.810   3.867   3.741 -0.1432 -0.1418 -0.1437
   39POPC   C4B  285   1.786   4.262   3.483 -0.0139  0.0968 -0.3595
   40POPC   NC3  286   8.110   5.974   4.932 -0.3566 -0.3391 -0.1745
   40POPC   PO4  287   8.488   5.890   4.886  0.2002 -0.0751  0.2859
   40POPC   GL1  288   8.425   5.918   4.508 -0.3050  0.3291  0.1229
   40POPC   GL2  289   8.533   6.239   4.463  0.1884 -0.2046  0.1516
   40POPC   C1A  290   8.333   6.086   4.032 -0.0231 -0.0914 -0.3481
   40POPC   D2A  291   8.047   6.188   3.677 -0.1330 -0.1093  0.2079
   40POPC   C3A  292   7.706   6.312   3.361  0.1239 -0.0962  0.0216
   40POPC   C4A  293   7.626   6.707   3.134 -0.0249  0.2944  0.1257
   40POPC   C1B  294   8.038   6.158   4.495 -0.0170 -0.0807 -0.0400
   40POPC   C2B  295   7.818   6.062   4.110 -0.3260  0.0633  0.0418
   40POPC   C3B  296   7.517   6.246   3.836 -0.0052  0.5008  0.1023
   40POPC   C4B  297   7.367   6.551   3.544 -0.0442 -0.0332  0.2386
   41POPC   NC3  298   6.872   5.422   5.515 -0.0735 -0.4460 -0.0458
   41POPC   PO4  299   6.618   5.146   5.455  0.1423 -0.2387  0.1456
   41POPC   GL1  300   6.649   5.076   5.116 -0.3825 -0.1404  0.0099
   41POPC   GL2  301   6.306   5.103   4.968 -0.3989  0.1365  0.1645
   41POPC   C1A  302   6.730   5.278   4.716 -0.0394 -0.1444 -0.1404
   41POPC   D2A  303   6.536   5.642   4.640  0.0158  0.0522 -0.0773
   41POPC   C3A  304   6.221   5.664   4.260  0.1679 -0.0339  0.1489
   41POPC   C4A  305   6.019   5.714   3.851 -0.0660 -0.0135  0.2659
   41POPC   C1B  306   6.251   5.141   4.502 -0.0403  0.1195 -0.2862
   41POPC   C2B  307   6.388   5.118   4.047  0.0055 -0.1234 -0.3356
   41POPC   C3B  308   6.684   5.049   3.693  0.3986 -0.2801 -0.2390
   41POPC   C4B  309   7.117   5.090   3.437 -0.2715 -0.0347 -0.0536
   42POPC   NC3  310   4.282   6.537   5.501 -0.0503  0.0645 -0.0101
   42POPC   PO4  311   4.672   6.519   5.629 -0.3510 -0.4285  0.2154
   42POPC   GL1  312   4.759   6.578   5.216  0.2223  0.1340  0.0327
   42POPC   GL2  313   5.025   6.710   5.313 -0.3786 -0.1600  0.0132
   42POPC   C1A  314   4.928   6.531   4.771  0.3755  0.1363  0.0781
   42POPC   D2A  315   4.849   6.298   4.336  0.1769 -0.0052  0.1220
   42POPC   C3A  316   4.569   6.006   4.085  0.2099 -0.0768  0.2929
   42POPC   C4A  317   4.403   5.632   4.086  0.0272 -0.0692 -0.1046
   42POPC   C1B  318   5.017   7.105   5.173  0.2805 -0.0612 -0.0114
   42POPC   C2B  319   5.138   7.432   4.931 -0.1361  0.1172 -0.1148
   42POPC   C3B  320   5.114   7.470   4.427  0.1782  0.2020  0.0148
   42POPC   C4B  321   4.877   7.220   4.061 -0.1641  0.3182  0.0835
   43POPC   NC3  322   4.145   3.824   5.812  0.0614 -0.2979 -0.1088
   43POPC   PO4  323   4.525   3.816   5.819  0.0284 -0.0008 -0.1234
   43POPC   GL1  324   4.643   3.810   5.382  0.2506 -0.0767 -0.1711
   43POPC   GL2  325   4.519   4.006   5.271  0.2193  0.0118 -0.2470
   43POPC   C1A  326   4.587   3.536   5.042  0.0467 -0.2459 -0.0710
   43POPC   D2A  327   4.515   3.102   4.897 -0.0357 -0.0478  0.1837
   43POPC   C3A  328   4.538   3.033   4.417  0.1017 -0.0927  0.1402
   43POPC   C4A  329   4.623   2.890   3.957  0.0432  0.1124 -0.0695
   43POPC   C1B  330   4.731   3.980   4.845  0.2456 -0.0846 -0.1132
   43POPC   C2B  331   4.963   3.910   4.423  0.0730  0.2139 -0.1532
   43POPC   C3B  332   5.269   4.064   4.084  0.1424 -0.2388  0.2701
   43POPC   C4B  333   5.377   4.376   3.791 -0.1157 -0.0447  0.3027
   44POPC   NC3  334   1.246   4.590   5.429  0.2335 -0.0213  0.1666
   44POPC   PO4  335   1.529   4.823   5.395 -0.2319 -0.5455 -0.0743
   44POPC   GL1  336   1.346   4.964   5.023  0.0069 -0.3136 -0.0295
   44POPC   GL2  337   1.409   5.170   4.847 -0.0870  0.0386 -0.0901
   44POPC   C1A  338   1.058   4.864   4.621  0.1977 -0.2898 -0.0209
   44POPC   D2A  339   0.848   5.034   4.199  0.2864 -0.0948 -0.1090
   44POPC   C3A  340   1.112   4.879   3.849 -0.0861  0.1042 -0.3473
   44POPC   C4A  341   1.049   4.750   3.453 -0.2178 -0.1371  0.1340
   44POPC   C1B  342   1.144   5.379   4.542 -0.0245 -0.0594  0.2096
   44POPC   C2B  343   0.947   5.740   4.317  0.0478  0.0024  0.0394
   44POPC   C3B  344   0.866   5.958   3.938 -0.0397  0.1686 -0.1682
   44POPC   C4B  345   1.045   6.033   3.517 -0.5711 -0.0957  0.0142
   45POPC   NC3  346   3.330   4.875   5.507  0.2649 -0.0511  0.0916
   45POPC   PO4  347   3.071   4.634   5.704 -0.1510 -0.0110  0.0445
   45POPC   GL1  348   3.231   4.484   5.342 -0.2585  0.0692  0.2730
   45POPC   GL2  349   3.027   4.625   5.178 -0.2554 -0.5352 -0.1705
   45POPC   C1A  350   3.406   4.533   4.906  0.4293 -0.0658  0.0706
   45POPC   D2A  351   3.363   4.451   4.481 -0.2179 -0.1343  0.1148
   45POPC   C3A  352   3.619   4.211   4.165  0.0395 -0.2946  0.1722
   45POPC   C4A  353   3.893   3.974   3.867  0.0812 -0.1118  0.1450
   45POPC   C1B  354   2.872   4.794   4.785 -0.2760  0.3008 -0.1332
   45POPC   C2B  355   2.653   4.678   4.405 -0.0376  0.1584  0.1054
   45POPC   C3B  356   2.550   4.445   4.002  0.0806 -0.1675  0.0196
   45POPC   C4B  357   2.757   4.161   3.687 -0.0167  0.0026 -0.1579
   46POPC   NC3  358   4.538   8.339   6.493 -0.0318  0.0963 -0.1298
   46POPC   PO4  359   4.587   8.190   6.103 -0.1928 -0.0241 -0.0124
   46POPC   GL1  360   4.542   8.139   5.606  0.0199 -0.2054 -0.0220
   46POPC   GL2  361   4.278   8.070   5.443  0.0817  0.1924  0.1272
   46POPC   C1A  362   4.811   7.879   5.319 -0.2763 -0.0374 -0.2397
   46POPC   D2A  363   4.971   7.940   4.890 -0.1379 -0.3573  0.3485
   46POPC   C3A  364   5.280   7.966   4.601 -0.0257  0.3554 -0.0824
   46POPC   C4A  365   5.380   7.894   4.152 -0.0791  0.0866  0.2536
   46POPC   C1B  366   4.323   7.853   5.095  0.1292 -0.2657  0.3545
   46POPC   C2B  367   4.430   7.697   4.676 -0.0687  0.3616  0.5231
   46POPC   C3B  368   4.441   7.689   4.258  0.2834 -0.1044 -0.0483
   46POPC   C4B  369   4.291   7.694   3.869  0.0579  0.1760  0.0736
   47POPC   NC3  370   0.189   7.981   5.127  0.1054 -0.0839 -0.3029
   47POPC   PO4  371   0.427   7.664   5.188 -0.0487  0.1118 -0.1543
   47POPC   GL1  372   0.167   7.558   4.899 -0.0274  0.1333 -0.6144
   47POPC   GL2  373  -0.070   7.565   4.941 -0.0887 -0.1061  0.1102
   47POPC   C1A  374   0.246   7.636   4.442 -0.1204  0.0327 -0.1790
   47POPC   D2A  375   0.243   7.507   4.008 -0.3401 -0.0541  0.1265
   47POPC   C3A  376   0.449   7.571   3.657 -0.1877 -0.1474  0.0302
   47POPC   C4A  377   0.621   7.414   3.248  0.0659 -0.0543  0.1181
   47POPC   C1B  378  -0.217   7.989   4.822  0.0451 -0.0625  0.0405
   47POPC   C2B  379  -0.303   8.398   4.665 -0.1835  0.2137  0.0541
   47POPC   C3B  380  -0.109   8.630   4.296  0.0532 -0.0491  0.3154
   47POPC   C4B  381  -0.012   9.042   4.034  0.1792 -0.3468 -0.2401
   48POPC   NC3  382   2.912   5.184   5.255  0.1164 -0.1890  0.5469
   48POPC   PO4  383   2.705   4.950   5.463 -0.0388 -0.2918  0.0622
   48POPC   GL1  384   2.506   4.816   5.120 -0.2360 -0.1333 -0.1701
   48POPC   GL2  385   2.425   5.111   4.972 -0.0251 -0.1249 -0.1129
   48POPC   C1A  386   2.498   4.413   4.834  0.3035 -0.0884 -0.1188
   48POPC   D2A  387   2.470   4.103   4.502 -0.0265  0.0933 -0.2024
   48POPC   C3A  388   2.316   3.994   4.075 -0.0462 -0.0435  0.2330
   48POPC   C4A  389   2.286   3.989   3.627 -0.1395  0.3711 -0.2890
   48POPC   C1B  390   2.508   5.150   4.516  0.0169  0.0165 -0.1195
   48POPC   C2B  391   2.508   5.128   4.017 -0.1119  0.1277 -0.2999
   48POPC   C3B  392   2.706   5.284   3.680  0.0985 -0.1285 -0.2172
   48POPC   C4B  393   2.649   5.394   3.222  0.0841 -0.0213  0.1227
   49POPC   NC3  394   4.397   0.855   5.387 -0.2193  0.0838  0.0592
   49POPC   PO4  395   4.674   0.744   5.610  0.3365  0.1697 -0.3765
   49POPC   GL1  396   4.800   0.617   5.318  0.1839  0.0157  0.1970
   49POPC   GL2  397   5.063   0.497   5.353  0.0928  0.4651  0.0801
   49POPC   C1A  398   4.592   0.724   4.886 -0.0210  0.2583 -0.0819
   49POPC   D2A  399   4.315   0.612   4.477  0.1271  0.1693  0.1889
   49POPC   C3A  400   4.496   0.788   4.102  0.0223  0.0546  0.1018
   49POPC   C4A  401   4.496   0.986   3.710  0.0022 -0.0612  0.1051
   49POPC   C1B  402   4.854   0.286   4.944 -0.0798  0.1122 -0.1482
   49POPC   C2B  403   4.734   0.339   4.484 -0.0442  0.1585  0.4231
   49POPC   C3B  404   4.773   0.338   4.011 -0.0795 -0.0565 -0.1905
   49POPC   C4B  405   4.616   0.523   3.603 -0.2970  0.2806 -0.1829
   50POPC   NC3  406   3.611   7.053   5.557  0.1159  0.0475  0.1299
   50POPC   PO4  407   3.781   6.717   5.599  0.0418 -0.0556 -0.0649
   50POPC   GL1  408   3.934   6.587   5.229  0.3134 -0.0501  0.0792
   50POPC   GL2  409   3.956   6.909   5.178 -0.0245  0.0680 -0.1988
   50POPC   C1A  410   4.203   6.576   4.820  0.0524 -0.2642 -0.0471
   50POPC   D2A  411   4.307   6.872   4.427  0.3260 -0.1162  0.0531
   50POPC   C3A  412   4.673   6.735   4.153 -0.1283 -0.4028  0.0522
   50POPC   C4A  413   5.041   6.725   3.856  0.1709  0.0519 -0.0183
   50POPC   C1B  414   3.694   7.169   4.883 -0.1602  0.1898 -0.1650
   50POPC   C2B  415   3.623   7.081   4.443 -0.2420  0.0699 -0.1200
   50POPC   C3B  416   3.486   7.102   3.986  0.3050  0.1140  0.0067
   50POPC   C4B  417   3.565   7.409   3.661  0.2300 -0.0103  0.1562
   51POPC   NC3  418   8.958   3.649   4.894  0.0239  0.2032 -0.0785
   51POPC   PO4  419   8.635   3.698   5.099 -0.0300  0.2639 -0.1367
   51POPC   GL1  420   8.653   4.038   4.817 -0.3247  0.2244  0.0027
   51POPC   GL2  421   8.394   4.246   4.872 -0.1290 -0.2987  0.0331
   51POPC   C1A  422   8.938   3.982   4.401  0.1083  0.1154  0.0188
   51POPC   D2A  423   9.169   4.006   4.008  0.2041  0.0270  0.0141
   51POPC   C3A  424   9.094   3.873   3.547  0.0871 -0.1669 -0.0471
   51POPC   C4A  425   9.026   4.035   3.097 -0.3598  0.0315 -0.2681
   51POPC   C1B  426   8.740   4.498   4.650  0.1175  0.0266 -0.0949
   51POPC   C2B  427   8.944   4.671   4.256 -0.0814 -0.1737  0.2422
   51POPC   C3B  428   8.843   4.775   3.829  0.0536  0.0760  0.0628
   51POPC   C4B  429   8.636   4.828   3.460  0.0631 -0.0026 -0.0632
   52POPC   NC3  430   0.505   0.691   5.552 -0.1418  0.0938  0.0708
   52POPC   PO4  431   0.308   0.569   5.266  0.1693  0.0174 -0.0053
   52POPC   GL1  432   0.391   0.465   4.820  0.0748  0.2648 -0.2277
   52POPC   GL2  433   0.564   0.298   4.599 -0.3197  0.0847 -0.1626
   52POPC   C1A  434   0.517   0.763   4.428 -0.1068  0.1953  0.1161
   52POPC   D2A  435   0.834   0.882   4.045  0.1969  0.4617  0.0007
   52POPC   C3A  436   0.774   1.261   3.831  0.0395  0.2059  0.0955
   52POPC   C4A  437   0.886   1.506   3.453  0.2320  0.2839  0.1156
   52POPC   C1B  438   0.745   0.415   4.172  0.1263 -0.1010 -0.0089
   52POPC   C2B  439   0.556   0.560   3.847  0.1401 -0.1416  0.0486
   52POPC   C3B  440   0.156   0.301   3.731 -0.3103  0.1055  0.1157
   52POPC   C4B  441  -0.026   0.013   3.468  0.1678 -0.1778 -0.0465
   53POPC   NC3  442   3.688   5.712   5.394 -0.1616 -0.2505 -0.2942
   53POPC   PO4  443   3.464   5.533   5.674 -0.0154  0.0332  0.0748
   53POPC   GL1  444   3.343   5.336   5.381  0.0715 -0.1203  0.0375
   53POPC   GL2  445   3.280   5.521   5.134 -0.1005 -0.0437 -0.1316
   53POPC   C1A  446   3.454   5.000   5.043 -0.2470 -0.4289 -0.0646
   53POPC   D2A  447   3.488   4.965   4.571 -0.0490  0.1271 -0.0932
   53POPC   C3A  448   3.908   4.891   4.406 -0.4886  0.1024  0.4032
   53POPC   C4A  449   4.291   4.775   4.586  0.0089  0.0150  0.1992
   53POPC   C1B  450   3.136   5.297   4.783  0.1245 -0.1068  0.1506
   53POPC   C2B  451   3.015   5.095   4.347  0.2960  0.2465 -0.0964
   53POPC   C3B  452   3.020   4.839   4.011 -0.1293 -0.0982  0.3036
   53POPC   C4B  453   3.163   4.429   3.891 -0.0189  0.0040  0.2876
   54POPC   NC3  454   0.982   7.581   5.167 -0.1716  0.2946  0.1188
   54POPC   PO4  455   1.234   7.393   5.402  0.2004  0.0824 -0.0849
   54POPC   GL1  456   1.338   7.183   5.140 -0.2895  0.3005  0.0982
   54POPC   GL2  457   1.083   7.112   4.987  0.1729  0.1286 -0.3112
   54POPC   C1A  458   1.548   7.049   4.722  0.0562  0.1103 -0.3580
   54POPC   D2A  459   1.784   7.268   4.391  0.0881  0.0733 -0.2815
   54POPC   C3A  460   1.891   7.028   3.994  0.3180 -0.1748  0.2321
   54POPC   C4A  461   2.118   6.733   3.720 -0.3987  0.4755 -0.1349
   54POPC   C1B  462   1.096   6.884   4.567 -0.0014  0.1159 -0.1179
   54POPC   C2B  463   0.893   6.777   4.160 -0.0704  0.0911  0.1183
   54POPC   C3B  464   0.820   6.710   3.689  0.0994  0.4393  0.2488
   54POPC   C4B  465   0.703   6.477   3.338  0.0525 -0.0983  0.0494
   55POPC   NC3  466   7.433   7.298   5.251 -0.1619  0.0478  0.4344
   55POPC   PO4  467   7.373   7.506   5.600 -0.1294 -0.0609 -0.0553
   55POPC   GL1  468   7.181   7.682   5.371 -0.0171 -0.0072 -0.2707
   55POPC   GL2  469   6.839   7.772   5.409 -0.1065  0.1588 -0.1253
   55POPC   C1A  470   7.063   7.524   4.933 -0.3571 -0.0039 -0.0869
   55POPC   D2A  471   7.045   7.387   4.459 -0.0126 -0.1509 -0.0398
   55POPC   C3A  472   7.417   7.297   4.205  0.0040  0.1892 -0.2441
   55POPC   C4A  473   7.833   7.338   4.130 -0.0715  0.0938  0.2865
   55POPC   C1B  474   6.697   7.832   4.923  0.1292 -0.0392  0.3032
   55POPC   C2B  475   6.722   7.833   4.499  0.0046 -0.2218 -0.0775
   55POPC   C3B  476   6.524   7.805   4.062 -0.1602  0.1604  0.0583
   55POPC   C4B  477   6.343   7.969   3.717 -0.1161 -0.0413  0.0858
   56POPC   NC3  478   5.193   6.319   5.615  0.1223  0.0606  0.0021
   56POPC   PO4  479   5.349   5.944   5.618  0.4820 -0.1660  0.1147
   56POPC   GL1  480   5.435   6.068   5.266 -0.2799 -0.1888 -0.2453
   56POPC   GL2  481   5.678   5.968   5.165 -0.3378  0.1228 -0.1471
   56POPC   C1A  482   5.283   5.995   4.800 -0.2382 -0.0836  0.3424
   56POPC   D2A  483   5.233   5.944   4.382 -0.1218  0.0193 -0.0106
   56POPC   C3A  484   5.118   6.137   3.963 -0.1702 -0.0816  0.0326
   56POPC   C4A  485   5.103   6.156   3.540  0.2264  0.0752 -0.0860
   56POPC   C1B  486   5.790   5.936   4.740  0.1728 -0.0666 -0.0541
   56POPC   C2B  487   5.644   5.689   4.363 -0.0424  0.0844  0.0476
   56POPC   C3B  488   5.344   5.297   4.259 -0.2837 -0.0082 -0.1312
   56POPC   C4B  489   4.923   5.142   4.252 -0.0307  0.0557 -0.0166
   57POPC   NC3  490   4.190   2.861   5.813  0.1024  0.1826  0.2169
   57POPC   PO4  491   4.123   2.461   5.656  0.0439 -0.2268  0.1510
   57POPC   GL1  492   4.090   2.543   5.296 -0.0412 -0.4659  0.0065
   57POPC   GL2  493   4.416   2.546   5.136  0.3571 -0.0207  0.0002
   57POPC   C1A  494   4.036   2.658   4.811 -0.2193  0.1112 -0.0728
   57POPC   D2A  495   4.034   3.013   4.592 -0.1841 -0.1055  0.0133
   57POPC   C3A  496   4.066   3.032   4.126 -0.0664  0.1291  0.1840
   57POPC   C4A  497   4.292   3.135   3.673  0.0394 -0.1675  0.1296
   57POPC   C1B  498   4.469   2.538   4.636  0.0637 -0.0627  0.0170
   57POPC   C2B  499   4.370   2.531   4.210  0.3934 -0.1117  0.0285
   57POPC   C3B  500   4.121   2.363   3.863 -0.3344  0.1474 -0.0061
   57POPC   C4B  501   3.888   2.270   3.532  0.0846 -0.0924 -0.0805
   58POPC   NC3  502   2.953   2.046   5.716 -0.1045  0.1436 -0.0314
   58POPC   PO4  503   3.268   2.261   5.730  0.3088  0.1619 -0.0013
   58POPC   GL1  504   3.068   2.391   5.373  0.2667 -0.3053  0.0487
   58POPC   GL2  505   3.245   2.207   5.237 -0.1693  0.2659 -0.2064
   58POPC   C1A  506   3.343   2.641   5.082 -0.3497  0.0178  0.1211
   58POPC   D2A  507   3.662   3.047   4.994 -0.0878 -0.0052 -0.3052
   58POPC   C3A  508   3.682   3.382   4.661 -0.3128  0.0203 -0.3967
   58POPC   C4A  509   3.722   3.751   4.399  0.0400 -0.0855  0.0858
   58POPC   C1B  510   3.689   2.101   5.000 -0.1819  0.2726  0.3051
   58POPC   C2B  511   3.619   2.036   4.530  0.0588 -0.2652 -0.4720
   58POPC   C3B  512   3.559   1.653   4.201 -0.1041  0.0511 -0.0850
   58POPC   C4B  513   3.538   1.327   3.861  0.1333  0.0087  0.0444
   59POPC   NC3  514   0.046   7.643   5.582 -0.0003 -0.0718  0.1359
   59POPC   PO4  515  -0.239   7.427   5.381 -0.0071  0.2069  0.2364
   59POPC   GL1  516  -0.607   7.580   5.328 -0.0164 -0.1730 -0.0763
   59POPC   GL2  517  -0.705   7.336   5.142  0.1200 -0.0385  0.0314
   59POPC   C1A  518  -0.637   7.750   4.865  0.2032  0.1232  0.0292
   59POPC   D2A  519  -0.860   7.482   4.554  0.1807  0.1223 -0.0613
   59POPC   C3A  520  -0.962   7.661   4.197  0.1963  0.1187 -0.1458
   59POPC   C4A  521  -1.174   7.873   3.871 -0.1297  0.1303  0.1147
   59POPC   C1B  522  -0.748   6.974   4.803  0.0131 -0.2366  0.1915
   59POPC   C2B  523  -0.831   6.640   4.476  0.1472 -0.1410  0.0780
   59POPC   C3B  524  -0.959   6.543   4.068  0.2888  0.0281  0.1834
   59POPC   C4B  525  -1.229   6.648   3.733 -0.0265 -0.1391  0.0241
   60POPC   NC3  526   1.994   4.796   5.217  0.3484  0.0791  0.2686
   60POPC   PO4  527   1.967   5.174   5.118 -0.0178 -0.2428  0.3455
   60POPC   GL1  528   2.053   5.142   4.699 -0.2007  0.4432  0.2292
   60POPC   GL2  529   2.131   4.824   4.721  0.0947 -0.1529 -0.1566
   60POPC   C1A  530   2.114   5.314   4.281 -0.1770  0.0982 -0.0337
   60POPC   D2A  531   2.100   5.375   3.830  0.2234  0.0444 -0.0144
   60POPC   C3A  532   2.276   5.091   3.509  0.2857  0.3797 -0.0421
   60POPC   C4A  533   2.479   4.844   3.173  0.1006  0.0578  0.1295
   60POPC   C1B  534   2.082   4.819   4.279 -0.0869  0.1512  0.0879
   60POPC   C2B  535   1.906   4.962   3.930 -0.1180  0.1352 -0.0267
   60POPC   C3B  536   1.787   4.834   3.475 -0.2491  0.2232  0.1003
   60POPC   C4B  537   1.994   4.677   3.106 -0.1783  0.0907  0.2026
   61POPC   NC3  538   2.592   6.935   5.273  0.3885  0.7461  0.0259
   61POPC   PO4  539   2.470   6.572   5.365  0.2096  0.1592  0.1376
   61POPC   GL1  540   2.368   6.531   4.960 -0.2883  0.0720 -0.1600
   61POPC   GL2  541   2.198   6.307   4.974  0.3554  0.3464 -0.1127
   61POPC   C1A  542   2.352   6.879   4.678 -0.0515 -0.2791 -0.1803
   61POPC   D2A  543   2.234   7.181   4.349  0.0522  0.0821  0.0254
   61POPC   C3A  544   2.311   7.440   3.951  0.0953  0.1837  0.0299
   61POPC   C4A  545   2.245   7.205   3.593  0.0084  0.3667 -0.1535
   61POPC   C1B  546   2.261   6.325   4.513  0.1258  0.0621 -0.1141
   61POPC   C2B  547   2.332   6.648   4.221  0.0347 -0.2237  0.0631
   61POPC   C3B  548   2.575   6.961   4.114 -0.0869  0.2391  0.0682
   61POPC   C4B  549   2.971   7.085   4.029  0.0134 -0.0830  0.3432
   62POPC   NC3  550   6.680   6.565   6.243 -0.1555 -0.1872 -0.1956
   62POPC   PO4  551   6.380   6.682   6.010  0.2966 -0.2679  0.2212
   62POPC   GL1  552   6.204   6.721   5.592 -0.1209  0.1164 -0.1714
   62POPC   GL2  553   6.309   6.975   5.357 -0.1541  0.2730  0.0939
   62POPC   C1A  554   5.963   6.604   5.223 -0.0176  0.3251 -0.0186
   62POPC   D2A  555   5.552   6.481   5.066  0.2112 -0.3680  0.1830
   62POPC   C3A  556   5.283   6.823   4.852 -0.0016  0.1334  0.3337
   62POPC   C4A  557   4.967   7.046   4.587  0.1156  0.0574 -0.3421
   62POPC   C1B  558   6.282   7.055   4.850 -0.1389 -0.0067 -0.2011
   62POPC   C2B  559   5.998   7.267   4.495 -0.2085  0.0719  0.0654
   62POPC   C3B  560   6.123   7.416   4.061 -0.2511  0.1265 -0.2138
   62POPC   C4B  561   5.972   7.296   3.646  0.3581  0.1067 -0.0718
   63POPC   NC3  562   1.482   2.673   4.951 -0.1298 -0.0419  0.0770
   63POPC   PO4  563   1.612   3.033   4.866  0.0625 -0.2211 -0.3521
   63POPC   GL1  564   1.400   3.143   4.466  0.0526 -0.1093 -0.0620
   63POPC   GL2  565   1.293   2.855   4.465 -0.0841 -0.3979  0.2661
   63POPC   C1A  566   1.492   2.953   4.064 -0.1782  0.0139  0.0278
   63POPC   D2A  567   1.687   2.556   3.874  0.1468  0.1528 -0.0816
   63POPC   C3A  568   2.079   2.472   3.623 -0.4085 -0.0931 -0.1389
   63POPC   C4A  569   2.437   2.628   3.376 -0.0468  0.0982 -0.1722
   63POPC   C1B  570   1.071   2.636   4.082  0.1521  0.3186  0.0622
   63POPC   C2B  571   1.099   2.477   3.661 -0.0290 -0.2202 -0.1294
   63POPC   C3B  572   1.462   2.106   3.571 -0.1377  0.0069  0.0617
   63POPC   C4B  573   1.842   2.119   3.246  0.0454 -0.1937 -0.2069
   64POPC   NC3  574   8.424   1.645   5.732  0.2606  0.0377  0.2538
   64POPC   PO4  575   8.305   1.426   5.494  0.0839  0.3600 -0.0095
   64POPC   GL1  576   8.267   1.664   5.097 -0.1017 -0.0115 -0.3584
   64POPC   GL2  577   8.511   1.806   5.083 -0.1188 -0.0107  0.0414
   64POPC   C1A  578   8.000   1.502   4.745 -0.0894 -0.1814  0.0506
   64POPC   D2A  579   8.020   1.081   4.552 -0.2865  0.0065  0.0866
   64POPC   C3A  580   7.812   0.779   4.276 -0.1188 -0.0736 -0.0691
   64POPC   C4A  581   7.663   0.645   3.878 -0.0898  0.0897  0.0062
   64POPC   C1B  582   8.481   1.755   4.601 -0.3237 -0.0671 -0.2467
   64POPC   C2B  583   8.128   1.788   4.317 -0.3089 -0.1617 -0.2151
   64POPC   C3B  584   7.919   1.549   4.039 -0.2656  0.1498 -0.0640
   64POPC   C4B  585   7.805   1.158   3.907  0.1468 -0.1200  0.0475
   65POPC   NC3  586   4.355   0.962   5.939 -0.3626  0.0321  0.1830
   65POPC   PO4  587   4.565   1.217   5.679  0.2514  0.0541 -0.0903
   65POPC   GL1  588   4.593   1.233   5.346 -0.0318  0.1258 -0.6206
   65POPC   GL2  589   4.930   1.063   5.302  0.1386 -0.0169 -0.2005
   65POPC   C1A  590   4.504   1.316   4.902 -0.0816  0.1095 -0.2702
   65POPC   D2A  591   4.583   1.071   4.494  0.1068 -0.1057  0.2454
   65POPC   C3A  592   4.934   0.763   4.431  0.1777  0.1460 -0.0748
   65POPC   C4A  593   5.174   0.779   4.845 -0.0963  0.0092  0.4044
   65POPC   C1B  594   4.973   1.210   4.920  0.0583  0.1099  0.2127
   65POPC   C2B  595   4.961   1.455   4.552  0.0548  0.1299 -0.1187
   65POPC   C3B  596   5.132   1.609   4.163 -0.0631  0.0248 -0.3425
   65POPC   C4B  597   5.232   1.305   3.791  0.0703 -0.1334  0.1176
   66POPC   NC3  598   0.541   6.554   5.438 -0.2159 -0.2926 -0.0672
   66POPC   PO4  599   0.514   6.214   5.266  0.0315 -0.1393  0.1786
   66POPC   GL1  600   0.546   6.232   4.883  0.3940 -0.0317 -0.1075
   66POPC   GL2  601   0.511   6.050   4.695 -0.0999  0.0693  0.0205
   66POPC   C1A  602   0.254   6.456   4.629  0.0820  0.0423 -0.1193
   66POPC   D2A  603   0.110   6.639   4.327 -0.0942 -0.0667  0.2568
   66POPC   C3A  604   0.390   6.757   3.954 -0.1148  0.2137 -0.2122
   66POPC   C4A  605   0.643   7.174   3.868 -0.0970  0.1072 -0.0230
   66POPC   C1B  606   0.431   5.922   4.241 -0.1715 -0.0500 -0.0304
   66POPC   C2B  607   0.278   5.860   3.839  0.1604  0.1511  0.1195
   66POPC   C3B  608  -0.120   5.913   3.623  0.0094 -0.1081  0.1267
   66POPC   C4B  609  -0.141   6.220   3.331  0.0308  0.0097 -0.1061
   67POPC   NC3  610   5.196   0.896   6.388 -0.2898  0.3663  0.1993
   67POPC   PO4  611   5.483   0.731   6.149 -0.0378 -0.1210  0.0020
   67POPC   GL1  612   5.523   0.826   5.729  0.0616  0.0648  0.2121
   67POPC   GL2  613   5.374   0.861   5.464 -0.0404 -0.1423  0.0772
   67POPC   C1A  614   5.904   0.742   5.438  0.0421  0.2052 -0.2000
   67POPC   D2A  615   6.194   0.653   5.083 -0.0027  0.2166 -0.2246
   67POPC   C3A  616   5.970   0.587   4.612 -0.1380 -0.0537 -0.0700
   67POPC   C4A  617   5.961   0.672   4.131  0.0395  0.1387 -0.1010
   67POPC   C1B  618   5.600   1.003   5.052  0.0334 -0.1183  0.0610
   67POPC   C2B  619   5.595   1.035   4.604  0.1246 -0.1513 -0.4497
   67POPC   C3B  620   5.279   1.133   4.249 -0.2722  0.2497 -0.0473
   67POPC   C4B  621   4.879   1.122   4.087 -0.2995 -0.0671 -0.0489
   68POPC   NC3  622   7.783   4.557   5.374  0.1886 -0.0938 -0.0838
   68POPC   PO4  623   7.888   4.931   5.383 -0.1612 -0.3969 -0.0501
   68POPC   GL1  624   7.995   4.819   4.879  0.3275 -0.1217  0.1106
   68POPC   GL2  625   7.803   4.601   4.865 -0.2278 -0.1664 -0.2291
   68POPC   C1A  626   8.178   4.592   4.529  0.0821  0.1100  0.0089
   68POPC   D2A  627   8.366   4.557   4.102  0.1271  0.1187  0.2132
   68POPC   C3A  628   8.703   4.253   3.988 -0.0529 -0.1523  0.3182
   68POPC   C4A  629   8.880   4.304   3.587  0.0753  0.1287  0.0920
   68POPC   C1B  630   7.702   4.788   4.468  0.1880  0.1037  0.0873
   68POPC   C2B  631   7.490   4.936   4.045 -0.0445  0.2079 -0.1403
   68POPC   C3B  632   7.137   5.252   3.957  0.0215  0.3738 -0.0994
   68POPC   C4B  633   6.903   5.507   3.599  0.0274 -0.0320 -0.1082
   69POPC   NC3  634   3.267   1.223   5.688 -0.0031  0.0643 -0.0022
   69POPC   PO4  635   3.219   1.614   5.739  0.1615  0.0080  0.1871
   69POPC   GL1  636   3.226   1.738   5.335  0.4432  0.1097 -0.3957
   69POPC   GL2  637   3.309   1.496   5.267 -0.2081 -0.3411 -0.1573
   69POPC   C1A  638   2.857   1.963   5.089  0.1969  0.2075 -0.3510
   69POPC   D2A  639   2.646   2.343   4.874 -0.1645  0.2534  0.1355
   69POPC   C3A  640   2.432   2.257   4.456  0.0872 -0.1516  0.0032
   69POPC   C4A  641   2.442   2.455   4.025 -0.1883 -0.0671 -0.0825
   69POPC   C1B  642   3.317   1.783   4.918 -0.0500  0.0724 -0.0730
   69POPC   C2B  643   3.131   2.158   4.742 -0.1657  0.0683  0.1956
   69POPC   C3B  644   3.358   2.485   4.592  0.2373 -0.3342  0.0073
   69POPC   C4B  645   3.509   2.933   4.510  0.0533  0.2454  0.1288
   70POPC   NC3  646   6.195   7.486   5.996  0.1629 -0.2169 -0.1429
   70POPC   PO4  647   6.384   7.163   5.822 -0.1507 -0.0292  0.2171
   70POPC   GL1  648   6.536   7.421   5.550 -0.0491  0.0262  0.3905
   70POPC   GL2  649   6.250   7.511   5.449  0.0919  0.1087  0.0026
   70POPC   C1A  650   6.604   7.366   5.067  0.3457  0.0108 -0.0616
   70POPC   D2A  651   6.533   7.382   4.611  0.2008  0.0402  0.0746
   70POPC   C3A  652   6.448   7.090   4.289  0.1655  0.0295  0.2277
   70POPC   C4A  653   6.537   7.173   3.868  0.1827 -0.1388 -0.1834
   70POPC   C1B  654   6.196   7.559   4.989  0.0703 -0.4125  0.0100
   70POPC   C2B  655   6.183   7.753   4.554 -0.0242  0.0410 -0.0117
   70POPC   C3B  656   6.199   8.197   4.397 -0.0139 -0.0294 -0.1102
   70POPC   C4B  657   6.230   8.616   4.279  0.0947  0.3430 -0.1676
   71POPC   NC3  658   8.620   8.759   5.955 -0.1650 -0.2098 -0.2783
   71POPC   PO4  659   8.948   8.866   5.774  0.1184 -0.0220 -0.1477
   71POPC   GL1  660   8.996   8.747   5.438  0.1836 -0.3526  0.0764
   71POPC   GL2  661   8.687   8.773   5.351 -0.1300  0.1131  0.1990
   71POPC   C1A  662   9.018   8.399   5.105  0.0827 -0.4447  0.0026
   71POPC   D2A  663   9.331   8.337   4.780  0.2210 -0.1157 -0.1748
   71POPC   C3A  664   9.108   8.145   4.365 -0.2004 -0.0909 -0.0116
   71POPC   C4A  665   8.829   8.239   4.025 -0.2982 -0.1065 -0.1130
   71POPC   C1B  666   8.455   8.518   5.062  0.2464  0.0164  0.3738
   71POPC   C2B  667   8.388   8.216   4.740  0.1002  0.0993 -0.1121
   71POPC   C3B  668   8.517   7.892   4.429 -0.2108 -0.2011 -0.2151
   71POPC   C4B  669   8.921   7.673   4.328  0.3184 -0.1827  0.0341
   72POPC   NC3  670   2.556   7.862   5.408  0.1601 -0.0742 -0.2134
   72POPC   PO4  671   2.902   8.004   5.397 -0.1468  0.0497  0.0388
   72POPC   GL1  672   3.099   7.777   5.166 -0.1426 -0.1232  0.3992
   72POPC   GL2  673   3.043   7.724   4.881  0.2270 -0.2707  0.0313
   72POPC   C1A  674   3.514   7.560   5.239 -0.0098 -0.2702 -0.2528
   72POPC   D2A  675   3.947   7.416   5.307  0.0593  0.1503 -0.3222
   72POPC   C3A  676   4.324   7.307   5.060 -0.0488  0.1886 -0.1185
   72POPC   C4A  677   4.538   6.996   4.838 -0.0974  0.0639  0.0170
   72POPC   C1B  678   3.111   7.511   4.509 -0.0470  0.1269  0.1238
   72POPC   C2B  679   3.177   7.546   4.014  0.1464  0.0221 -0.0508
   72POPC   C3B  680   3.155   7.882   3.677  0.2497  0.1002  0.1973
   72POPC   C4B  681   3.253   8.327   3.525  0.0504  0.0642 -0.0840
   73POPC   NC3  682   2.759   4.335   5.496  0.3034 -0.0738  0.1101
   73POPC   PO4  683   2.974   4.075   5.634 -0.2733 -0.1330 -0.2281
   73POPC   GL1  684   2.872   4.082   5.135  0.1285 -0.3241 -0.2601
   73POPC   GL2  685   3.113   4.081   5.148 -0.4020 -0.0650  0.0382
   73POPC   C1A  686   2.947   4.272   4.708  0.0076  0.0917 -0.2099
   73POPC   D2A  687   2.847   4.166   4.211  0.0333 -0.3728 -0.0792
   73POPC   C3A  688   2.730   3.704   4.159  0.2729 -0.2837 -0.1438
   73POPC   C4A  689   2.915   3.304   3.997  0.1548  0.2170 -0.2989
   73POPC   C1B  690   3.485   4.046   4.805 -0.0499  0.1042  0.1347
   73POPC   C2B  691   3.879   4.196   4.642 -0.0115 -0.0980  0.3581
   73POPC   C3B  692   4.098   4.448   4.282  0.1714  0.0270  0.2586
   73POPC   C4B  693   4.050   4.535   3.852  0.1738  0.1617  0.2559
   74POPC   NC3  694   5.472   8.147   6.090 -0.2650 -0.2209 -0.0571
   74POPC   PO4  695   5.572   8.234   5.706  0.1119 -0.0131 -0.1966
   74POPC   GL1  696   5.781   7.977   5.445 -0.1268  0.2015 -0.2518
   74POPC   GL2  697   5.529   7.902   5.253 -0.1920  0.1257  0.1032
   74POPC   C1A  698   5.766   7.491   5.411 -0.0947 -0.2681 -0.1154
   74POPC   D2A  699   5.559   7.186   5.166 -0.0899  0.0053 -0.0543
   74POPC   C3A  700   5.780   6.922   4.862  0.1550 -0.0426 -0.0406
   74POPC   C4A  701   5.945   6.768   4.435 -0.3258 -0.3597  0.0874
   74POPC   C1B  702   5.655   7.664   4.894 -0.3938 -0.1768  0.2008
   74POPC   C2B  703   5.563   7.310   4.633 -0.1214 -0.0068 -0.1905
   74POPC   C3B  704   5.388   7.079   4.260  0.0076  0.0349 -0.1882
   74POPC   C4B  705   5.267   6.651   4.268 -0.1107  0.2585  0.0756
   75POPC   NC3  706   6.728   6.816   5.633  0.1886  0.2174  0.2083
   75POPC   PO4  707   7.111   6.731   5.456 -0.1999  0.1037  0.0049
   75POPC   GL1  708   7.098   6.824   5.131  0.0881  0.0714 -0.1359
   75POPC   GL2  709   6.758   6.867   5.141  0.1212  0.1312 -0.1816
   75POPC   C1A  710   7.239   7.099   4.772 -0.0874 -0.1106 -0.4426
   75POPC   D2A  711   7.686   7.130   4.797  0.0712  0.0654 -0.0361
   75POPC   C3A  712   8.006   7.108   4.507  0.3342 -0.0432  0.1391
   75POPC   C4A  713   8.268   7.062   4.140  0.0532 -0.4700  0.3534
   75POPC   C1B  714   6.780   6.958   4.685  0.2562  0.1855 -0.2628
   75POPC   C2B  715   6.892   6.879   4.263 -0.6090 -0.0115  0.1763
   75POPC   C3B  716   7.065   7.040   3.842 -0.1647  0.0521 -0.3557
   75POPC   C4B  717   7.255   7.415   3.600 -0.1767  0.1566 -0.2017
   76POPC   NC3  718   6.046   8.416   5.650 -0.2376 -0.2317  0.2512
   76POPC   PO4  719   6.158   8.053   5.783  0.1226 -0.2065  0.0791
   76POPC   GL1  720   6.253   8.005   5.436 -0.1654 -0.0672 -0.0800
   76POPC   GL2  721   6.496   8.187   5.341 -0.0360  0.0401 -0.0585
   76POPC   C1A  722   6.064   8.004   4.996 -0.0222 -0.1055  0.1057
   76POPC   D2A  723   5.727   8.123   4.616  0.3765  0.2114 -0.0943
   76POPC   C3A  724   5.802   8.560   4.543 -0.1324  0.0346 -0.2265
   76POPC   C4A  725   6.140   8.796   4.765 -0.0786 -0.1529  0.2005
   76POPC   C1B  726   6.448   8.310   4.928  0.1038 -0.1328  0.0540
   76POPC   C2B  727   6.556   8.638   4.669 -0.1014 -0.0265 -0.1620
   76POPC   C3B  728   6.646   9.023   4.662  0.1157 -0.0125  0.1309
   76POPC   C4B  729   6.878   9.219   5.004  0.1499  0.2016  0.0311
   77POPC   NC3  730   1.742   7.122   5.391 -0.2847 -0.3261  0.0091
   77POPC   PO4  731   2.101   6.926   5.404  0.2105 -0.1973 -0.3427
   77POPC   GL1  732   2.186   6.968   5.074 -0.2172  0.2271 -0.0315
   77POPC   GL2  733   1.941   6.828   4.954 -0.1327  0.1041 -0.1571
   77POPC   C1A  734   2.014   7.319   4.840  0.3366 -0.1217  0.1233
   77POPC   D2A  735   1.578   7.535   4.834  0.0724 -0.2278 -0.1297
   77POPC   C3A  736   1.249   7.405   4.555  0.2353 -0.2662  0.0473
   77POPC   C4A  737   1.249   7.306   4.104  0.0340  0.1094  0.0929
   77POPC   C1B  738   1.927   6.747   4.513 -0.3185  0.0999 -0.0726
   77POPC   C2B  739   1.870   6.402   4.206 -0.2084 -0.5500 -0.1897
   77POPC   C3B  740   1.691   6.174   3.910  0.1367 -0.2424 -0.2794
   77POPC   C4B  741   1.397   5.829   3.890  0.1494  0.0537 -0.0571
   78POPC   NC3  742   4.116   7.990   5.917  0.2162  0.0854 -0.0661
   78POPC   PO4  743   3.952   8.299   5.771  0.0203  0.1029  0.2128
   78POPC   GL1  744   3.815   8.292   5.441  0.1346 -0.0678 -0.0487
   78POPC   GL2  745   3.577   8.221   5.307 -0.0948  0.0785 -0.0676
   78POPC   C1A  746   3.965   8.260   5.039  0.0526  0.0849  0.2582
   78POPC   D2A  747   4.018   8.056   4.666 -0.0954  0.4217 -0.0084
   78POPC   C3A  748   3.948   8.018   4.217 -0.2282  0.2427  0.0049
   78POPC   C4A  749   4.092   8.195   3.806  0.1833  0.3211  0.0375
   78POPC   C1B  750   3.615   7.932   4.901 -0.0152 -0.0263  0.4348
   78POPC   C2B  751   3.874   7.600   4.695 -0.0903  0.2120  0.2004
   78POPC   C3B  752   4.136   7.341   4.452  0.1689  0.1975  0.1303
   78POPC   C4B  753   4.579   7.279   4.454  0.0088 -0.3681 -0.2986
   79POPC   NC3  754   4.430   9.047   5.848 -0.1669  0.0013 -0.1886
   79POPC   PO4  755   4.462   9.035   5.452 -0.2213 -0.0081  0.1124
   79POPC   GL1  756   4.427   9.050   4.997  0.0260 -0.0396  0.0647
   79POPC   GL2  757   4.341   9.226   4.773  0.2820  0.4765 -0.2086
   79POPC   C1A  758   4.220   8.623   4.828  0.0241 -0.1871 -0.2337
   79POPC   D2A  759   4.233   8.408   4.386  0.3488  0.2982 -0.0722
   79POPC   C3A  760   4.435   8.615   3.982  0.1615  0.0362  0.0175
   79POPC   C4A  761   4.713   8.598   3.560  0.2665  0.2413  0.1488
   79POPC   C1B  762   4.581   8.837   4.516  0.0402  0.1737 -0.1631
   79POPC   C2B  763   4.784   8.502   4.338  0.3523  0.2785 -0.3657
   79POPC   C3B  764   5.094   8.322   4.051  0.0630  0.1095 -0.1267
   79POPC   C4B  765   5.107   8.029   3.693 -0.2582 -0.0107 -0.1311
   80POPC   NC3  766   1.373   0.859   5.644 -0.1339  0.0954  0.1975
   80POPC   PO4  767   1.074   0.835   5.417  0.3759  0.1544 -0.2490
   80POPC   GL1  768   1.070   1.020   5.091 -0.2093 -0.1405  0.1313
   80POPC   GL2  769   1.208   0.859   4.877 -0.2686  0.0205  0.2986
   80POPC   C1A  770   0.717   1.109   4.812  0.3600  0.4787 -0.1883
   80POPC   D2A  771   0.477   1.236   4.437 -0.0602  0.1858 -0.1059
   80POPC   C3A  772   0.620   1.578   4.198  0.0391 -0.1158 -0.1396
   80POPC   C4A  773   0.466   1.845   3.798  0.0669 -0.2771 -0.1462
   80POPC   C1B  774   1.029   0.690   4.475 -0.0641 -0.1761  0.1164
   80POPC   C2B  775   1.230   0.497   4.089 -0.1283 -0.0200  0.1388
   80POPC   C3B  776   1.492   0.494   3.713 -0.4510 -0.2960 -0.3087
   80POPC   C4B  777   1.476   0.645   3.245 -0.0917  0.0319 -0.1427
   81POPC   NC3  778   6.462   3.193   5.434 -0.2595  0.0650 -0.1189
   81POPC   PO4  779   6.815   3.030   5.374 -0.5387  0.2889 -0.0188
   81POPC   GL1  780   6.870   2.964   4.895 -0.3301  0.0233  0.0095
   81POPC   GL2  781   6.842   2.643   4.927 -0.2540  0.0211 -0.1779
   81POPC   C1A  782   6.612   2.884   4.500  0.1888 -0.1712 -0.0686
   81POPC   D2A  783   6.455   2.966   4.078 -0.0850  0.0740  0.4314
   81POPC   C3A  784   6.401   2.680   3.728 -0.2991  0.2536 -0.2099
   81POPC   C4A  785   6.070   2.648   3.484  0.2740  0.0491  0.1855
   81POPC   C1B  786   7.082   2.753   4.586  0.1185  0.1665 -0.0349
   81POPC   C2B  787   6.923   2.693   4.229 -0.3045 -0.0935  0.4401
   81POPC   C3B  788   6.935   2.531   3.824  0.0938  0.0108 -0.0103
   81POPC   C4B  789   6.799   2.345   3.399  0.1093  0.0144  0.0707
   82POPC   NC3  790   7.126   8.995   5.840  0.1720  0.0075  0.2036
   82POPC   PO4  791   7.062   8.626   5.978 -0.0230 -0.0619 -0.0613
   82POPC   GL1  792   7.330   8.422   5.683 -0.1425 -0.0750 -0.0900
   82POPC   GL2  793   7.430   8.638   5.521  0.2462  0.1329 -0.0876
   82POPC   C1A  794   7.298   8.101   5.324 -0.2127 -0.0113 -0.1015
   82POPC   D2A  795   7.234   8.028   4.903  0.0658  0.1777  0.0030
   82POPC   C3A  796   7.398   8.347   4.595  0.0044 -0.2460  0.1274
   82POPC   C4A  797   7.456   8.614   4.277 -0.0826 -0.0166 -0.0858
   82POPC   C1B  798   7.450   8.522   5.058 -0.0085 -0.1482 -0.1329
   82POPC   C2B  799   7.686   8.747   4.718 -0.0888  0.0460 -0.2551
   82POPC   C3B  800   8.162   8.782   4.727  0.2044  0.0569 -0.0211
   82POPC   C4B  801   8.351   9.021   5.073 -0.4564 -0.2076 -0.0139
   83POPC   NC3  802   7.365   1.909   5.252 -0.1330 -0.1330  0.1071
   83POPC   PO4  803   7.327   2.295   5.270  0.2385  0.0534 -0.0079
   83POPC   GL1  804   7.158   2.285   4.948  0.0098 -0.0173 -0.0645
   83POPC   GL2  805   6.917   2.111   5.049  0.3004  0.0784 -0.1970
   83POPC   C1A  806   7.296   2.329   4.512  0.1094  0.1751  0.0074
   83POPC   D2A  807   7.411   2.459   4.094  0.0042  0.0859 -0.2229
   83POPC   C3A  808   7.487   2.090   3.827 -0.6306  0.0386 -0.1859
   83POPC   C4A  809   7.434   2.044   3.424 -0.0481 -0.1049 -0.1496
   83POPC   C1B  810   6.462   2.120   4.916 -0.1369  0.0652 -0.0480
   83POPC   C2B  811   6.048   2.282   4.697  0.2359 -0.1511  0.2852
   83POPC   C3B  812   5.617   2.095   4.857  0.0179  0.4786  0.0579
   83POPC   C4B  813   5.241   1.969   5.048  0.1631 -0.0054 -0.0453
   84POPC   NC3  814   2.434   2.660   5.126  0.1485 -0.1677 -0.0455
   84POPC   PO4  815   2.743   2.710   5.368  0.1276  0.0887  0.1699
   84POPC   GL1  816   2.780   3.024   5.106 -0.0417 -0.0349  0.0068
   84POPC   GL2  817   3.055   3.060   5.116  0.4350  0.2235 -0.0034
   84POPC   C1A  818   2.667   3.296   4.758 -0.1215  0.0790  0.0142
   84POPC   D2A  819   2.463   3.331   4.368  0.1943  0.1422  0.0233
   84POPC   C3A  820   2.517   2.981   4.049 -0.2233 -0.1209  0.0034
   84POPC   C4A  821   2.804   2.736   3.775 -0.1108  0.2873  0.2089
   84POPC   C1B  822   3.009   2.810   4.742  0.2506 -0.1258 -0.2399
   84POPC   C2B  823   3.069   2.904   4.310 -0.0981  0.1486  0.0396
   84POPC   C3B  824   3.295   2.963   3.927  0.1266 -0.0166  0.0879
   84POPC   C4B  825   3.666   2.882   3.691  0.0942 -0.0102  0.1884
   85POPC   NC3  826   2.010   8.508   5.568  0.2677 -0.1467 -0.0345
   85POPC   PO4  827   2.368   8.338   5.607  0.1921 -0.1499  0.1610
   85POPC   GL1  828   2.223   8.279   5.210 -0.2110 -0.1461  0.3332
   85POPC   GL2  829   2.042   8.452   5.063  0.0281 -0.0274  0.0472
   85POPC   C1A  830   2.182   7.936   4.901 -0.2640  0.1585 -0.3884
   85POPC   D2A  831   2.397   7.657   4.567 -0.0012 -0.0185 -0.2241
   85POPC   C3A  832   2.035   7.722   4.308  0.0771  0.2711 -0.1380
   85POPC   C4A  833   1.712   7.593   4.032 -0.1840  0.1353 -0.3196
   85POPC   C1B  834   2.395   8.579   4.826 -0.1659 -0.0035  0.1005
   85POPC   C2B  835   2.583   8.252   4.509  0.0470  0.3885 -0.1160
   85POPC   C3B  836   2.465   7.962   4.187 -0.1162 -0.1511  0.1047
   85POPC   C4B  837   2.170   7.909   3.853  0.0989 -0.0773  0.0304
   86POPC   NC3  838   6.282   6.231   5.787  0.0896  0.0250 -0.2221
   86POPC   PO4  839   6.669   6.263   5.851  0.0943  0.1739 -0.1679
   86POPC   GL1  840   6.691   6.438   5.412 -0.1847  0.4923 -0.2002
   86POPC   GL2  841   6.446   6.397   5.307 -0.0469 -0.1177 -0.2472
   86POPC   C1A  842   6.873   6.190   5.096  0.0997 -0.3403 -0.1894
   86POPC   D2A  843   7.199   6.054   4.750  0.1497 -0.2830 -0.1094
   86POPC   C3A  844   6.976   5.763   4.446 -0.0962 -0.1685 -0.4119
   86POPC   C4A  845   6.733   5.506   4.154 -0.0091  0.0296  0.1118
   86POPC   C1B  846   6.395   6.520   4.895  0.3039 -0.2204  0.1004
   86POPC   C2B  847   6.412   6.550   4.448 -0.0312  0.2756 -0.0099
   86POPC   C3B  848   6.410   6.696   4.044 -0.3401  0.1017 -0.1509
   86POPC   C4B  849   6.495   6.559   3.606 -0.0904  0.2946 -0.5239
   87POPC   NC3  850   6.493   2.686   5.597 -0.0254 -0.0146  0.0565
   87POPC   PO4  851   6.227   2.635   5.327  0.1934 -0.0514  0.1330
   87POPC   GL1  852   6.348   2.766   5.002 -0.2741  0.2837  0.0874
   87POPC   GL2  853   6.442   3.026   4.939 -0.2618 -0.1796 -0.1334
   87POPC   C1A  854   6.051   2.757   4.645  0.3373  0.2643 -0.0417
   87POPC   D2A  855   6.077   2.757   4.243  0.0850  0.1533  0.0469
   87POPC   C3A  856   6.459   2.473   4.248  0.0623 -0.0337  0.2130
   87POPC   C4A  857   6.782   2.279   4.553  0.1330 -0.2557  0.1587
   87POPC   C1B  858   6.212   3.185   4.600  0.1886  0.1675  0.1334
   87POPC   C2B  859   6.176   3.357   4.206 -0.0057 -0.0952  0.3296
   87POPC   C3B  860   6.328   3.424   3.723  0.1984 -0.0874  0.0868
   87POPC   C4B  861   6.584   3.276   3.354 -0.3036  0.2100 -0.2753
   88POPC   NC3  862   6.930   1.675   6.001 -0.1490 -0.3485  0.0159
   88POPC   PO4  863   7.026   1.558   5.617  0.0654  0.0128  0.0194
   88POPC   GL1  864   6.892   1.463   5.267 -0.1129 -0.0436  0.6653
   88POPC   GL2  865   6.642   1.318   5.255 -0.1145  0.0654 -0.1442
   88POPC   C1A  866   6.697   1.648   4.909  0.0810 -0.0406 -0.0190
   88POPC   D2A  867   6.599   1.427   4.473 -0.0850 -0.2412  0.0642
   88POPC   C3A  868   6.186   1.469   4.262 -0.1394  0.0386 -0.1183
   88POPC   C4A  869   5.728   1.473   4.296 -0.1627  0.1540  0.0160
   88POPC   C1B  870   6.584   0.992   4.936  0.1010 -0.2936  0.1473
   88POPC   C2B  871   6.746   0.926   4.504 -0.3181 -0.1726 -0.0987
   88POPC   C3B  872   6.581   0.870   4.094  0.0537  0.1026 -0.0994
   88POPC   C4B  873   6.633   0.403   3.889  0.2298 -0.0953 -0.1672
   89POPC   NC3  874   7.126   6.095   5.508 -0.3683  0.0753 -0.0673
   89POPC   PO4  875   7.300   5.677   5.540  0.2395 -0.1128  0.1497
   89POPC   GL1  876   7.489   5.838   5.143  0.0813 -0.2130 -0.1562
   89POPC   GL2  877   7.699   5.707   5.090 -0.0011  0.1286 -0.0182
   89POPC   C1A  878   7.357   5.525   4.746  0.1809  0.0831  0.1430
   89POPC   D2A  879   7.226   5.204   4.509 -0.1066 -0.0497 -0.1692
   89POPC   C3A  880   6.868   4.928   4.266 -0.1080 -0.0412  0.0728
   89POPC   C4A  881   6.679   4.571   3.956 -0.3892 -0.0263 -0.1513
   89POPC   C1B  882   7.761   5.838   4.649  0.0121  0.1849  0.0115
   89POPC   C2B  883   7.455   5.749   4.294  0.0300  0.0424  0.3541
   89POPC   C3B  884   7.187   5.874   3.954 -0.1316  0.1497 -0.1215
   89POPC   C4B  885   7.238   6.031   3.491  0.0145 -0.2042  0.0164
   90POPC   NC3  886   4.036   1.302   5.661  0.2021  0.2286  0.0922
   90POPC   PO4  887   3.736   1.089   5.534 -0.1829 -0.2992 -0.0407
   90POPC   GL1  888   3.652   1.144   5.212  0.1029  0.0120  0.1146
   90POPC   GL2  889   3.896   1.061   5.096  0.0540 -0.0145  0.0144
   90POPC   C1A  890   3.237   1.091   4.946 -0.4363 -0.2690  0.0454
   90POPC   D2A  891   3.058   0.871   4.590  0.0859 -0.0184 -0.2660
   90POPC   C3A  892   2.796   1.154   4.503  0.4068  0.3306  0.1089
   90POPC   C4A  893   2.528   1.394   4.205 -0.0351  0.0672  0.2963
   90POPC   C1B  894   4.014   1.034   4.683 -0.0112 -0.1936  0.1991
   90POPC   C2B  895   4.210   1.406   4.528  0.2944 -0.1427  0.2628
   90POPC   C3B  896   4.487   1.652   4.293 -0.3192  0.1392  0.4278
   90POPC   C4B  897   4.343   1.770   3.781 -0.0526 -0.1924  0.1014
   91POPC   NC3  898   6.292   4.285   5.869  0.0494  0.0315  0.2711
   91POPC   PO4  899   6.235   4.574   5.582  0.0510 -0.1520  0.0985
   91POPC   GL1  900   6.353   4.761   5.232 -0.0872 -0.1582 -0.0308
   91POPC   GL2  901   6.574   4.602   5.201  0.3461 -0.1419  0.0728
   91POPC   C1A  902   6.173   4.686   4.822  0.1852 -0.1416 -0.1150
   91POPC   D2A  903   5.859   4.577   4.532  0.1847  0.0467  0.1865
   91POPC   C3A  904   5.672   4.852   4.286  0.1205  0.1861  0.0500
   91POPC   C4A  905   5.872   5.218   4.049  0.0714  0.3615 -0.0742
   91POPC   C1B  906   6.665   4.783   4.764  0.0905 -0.1539 -0.0152
   91POPC   C2B  907   6.431   4.627   4.411  0.0822  0.3061  0.4795
   91POPC   C3B  908   6.118   4.725   4.038 -0.2863  0.1673 -0.0384
   91POPC   C4B  909   6.255   4.813   3.600 -0.0271 -0.1426 -0.0331
   92POPC   NC3  910   8.166   2.781   5.553 -0.0258 -0.0318 -0.2038
   92POPC   PO4  911   8.251   2.508   5.274  0.1128  0.0025  0.1217
   92POPC   GL1  912   7.982   2.622   5.002 -0.3371 -0.0556  0.0469
   92POPC   GL2  913   7.916   2.872   5.051 -0.0477  0.1587  0.1868
   92POPC   C1A  914   8.052   2.430   4.595 -0.0901  0.3223  0.2130
   92POPC   D2A  915   7.783   2.198   4.307 -0.2002 -0.1266  0.0815
   92POPC   C3A  916   7.958   2.119   3.876  0.2549 -0.3904  0.1282
   92POPC   C4A  917   8.463   2.009   3.839  0.1974 -0.1792  0.0049
   92POPC   C1B  918   7.892   2.903   4.616  0.0794 -0.2596  0.0244
   92POPC   C2B  919   7.787   2.847   4.161  0.3861 -0.0510  0.1475
   92POPC   C3B  920   7.875   2.610   3.740  0.2420 -0.0010  0.0036
   92POPC   C4B  921   7.869   2.328   3.341  0.1946  0.0351 -0.0414
   93POPC   NC3  922   0.280   8.868   5.586 -0.2632 -0.0261 -0.2000
   93POPC   PO4  923   0.597   8.910   5.347 -0.0372 -0.2583 -0.1598
   93POPC   GL1  924   0.289   8.666   5.101 -0.0901  0.3150  0.0616
   93POPC   GL2  925   0.370   8.800   4.846 -0.3666  0.0117  0.1279
   93POPC   C1A  926  -0.103   8.834   4.891 -0.2724 -0.0612 -0.1086
   93POPC   D2A  927  -0.287   9.256   4.776  0.2271  0.1598  0.2868
   93POPC   C3A  928  -0.658   9.457   4.653 -0.0254  0.1055  0.0947
   93POPC   C4A  929  -0.937   9.776   4.507  0.1156 -0.3374 -0.0172
   93POPC   C1B  930   0.248   9.051   4.510 -0.2215  0.1081 -0.0944
   93POPC   C2B  931   0.250   9.442   4.238  0.0358  0.2289 -0.2655
   93POPC   C3B  932   0.119   9.818   4.107 -0.0862 -0.0719  0.0813
   93POPC   C4B  933   0.339  10.160   3.890  0.0243 -0.0908  0.1142
   94POPC   NC3  934   8.163   2.161   4.984  0.1803  0.1070 -0.0801
   94POPC   PO4  935   7.834   2.255   5.172  0.1089 -0.0781  0.3111
   94POPC   GL1  936   7.575   2.118   4.876 -0.0730 -0.0572 -0.1146
   94POPC   GL2  937   7.676   1.876   4.666 -0.1046  0.3551 -0.0222
   94POPC   C1A  938   7.230   1.802   4.804  0.0439 -0.3557  0.0467
   94POPC   D2A  939   6.914   1.805   4.475 -0.0279 -0.1888 -0.1978
   94POPC   C3A  940   7.023   2.136   4.127  0.1660  0.0439  0.1491
   94POPC   C4A  941   6.934   1.978   3.706  0.1088  0.2890 -0.0192
   94POPC   C1B  942   7.404   1.869   4.329  0.1652 -0.0017  0.1466
   94POPC   C2B  943   7.446   1.605   3.929 -0.0503 -0.1476  0.1455
   94POPC   C3B  944   7.421   1.545   3.498 -0.0814 -0.0576  0.0037
   94POPC   C4B  945   7.264   1.384   3.123 -0.2765 -0.1356  0.0955
   95POPC   NC3  946   9.146   2.053   5.242  0.0719 -0.0203  0.2293
   95POPC   PO4  947   8.890   1.752   5.368  0.1390  0.0823  0.2325
   95POPC   GL1  948   8.864   1.459   5.092 -0.3481  0.0534 -0.0730
   95POPC   GL2  949   8.628   1.336   5.031  0.0460  0.3006 -0.0076
   95POPC   C1A  950   8.930   1.471   4.605  0.0728 -0.0294  0.2305
   95POPC   D2A  951   8.850   1.722   4.238  0.2140  0.0235 -0.3373
   95POPC   C3A  952   9.190   1.505   3.990  0.2424 -0.0891  0.0948
   95POPC   C4A  953   9.390   1.404   3.611 -0.3321 -0.0075  0.2183
   95POPC   C1B  954   8.532   1.203   4.621  0.0516  0.4592  0.2465
   95POPC   C2B  955   8.349   1.104   4.197 -0.3268 -0.0002  0.1229
   95POPC   C3B  956   8.302   1.320   3.785  0.0934 -0.0740 -0.5249
   95POPC   C4B  957   8.584   1.551   3.566  0.3755  0.1839 -0.1506
   96POPC   NC3  958   6.867   8.306   5.626  0.0460  0.0297  0.3915
   96POPC   PO4  959   6.577   8.569   5.728 -0.1377  0.2238 -0.0152
   96POPC   GL1  960   6.358   8.727   5.354 -0.1322  0.2302 -0.1836
   96POPC   GL2  961   6.576   8.717   5.211 -0.0145 -0.0885 -0.1975
   96POPC   C1A  962   5.929   8.859   5.203  0.0696 -0.1429  0.2358
   96POPC   D2A  963   5.756   9.111   4.854 -0.2637  0.1373 -0.1434
   96POPC   C3A  964   6.028   9.167   4.467 -0.1446  0.1132 -0.2024
   96POPC   C4A  965   6.092   9.367   4.031  0.5107 -0.0424 -0.2566
   96POPC   C1B  966   6.898   8.369   5.081 -0.0651 -0.0311  0.2891
   96POPC   C2B  967   6.919   8.298   4.655 -0.0624  0.1408 -0.1883
   96POPC   C3B  968   6.827   8.182   4.216 -0.3777 -0.1993 -0.1948
   96POPC   C4B  969   6.482   8.351   3.976 -0.3259 -0.1570  0.1282
   97POPC   NC3  970   5.375   3.186   5.550 -0.1588  0.2388  0.2983
   97POPC   PO4  971   5.653   3.461   5.513 -0.0300 -0.0611  0.0088
   97POPC   GL1  972   5.764   3.324   5.235  0.1238 -0.3603  0.0564
   97POPC   GL2  973   5.988   3.324   5.132 -0.2340 -0.1529 -0.2656
   97POPC   C1A  974   5.642   2.977   5.039 -0.0777  0.0485  0.0476
   97POPC   D2A  975   5.510   2.730   4.692  0.2938 -0.0636 -0.0845
   97POPC   C3A  976   5.582   2.355   4.412  0.0561 -0.0035 -0.1093
   97POPC   C4A  977   5.939   2.107   4.272 -0.0214  0.2032 -0.2553
   97POPC   C1B  978   5.725   3.469   4.760  0.1526  0.0833  0.2012
   97POPC   C2B  979   5.728   3.131   4.416 -0.1049  0.5665 -0.0962
   97POPC   C3B  980   5.533   2.815   4.142  0.0572  0.0549  0.1350
   97POPC   C4B  981   5.569   2.430   3.904 -0.1961  0.1452 -0.2294
   98POPC   NC3  982   1.893   6.501   5.344 -0.2423  0.2227 -0.0353
   98POPC   PO4  983   1.738   6.181   5.177  0.1454  0.3127 -0.0210
   98POPC   GL1  984   1.459   6.324   4.910 -0.0265 -0.0934 -0.0838
   98POPC   GL2  985   1.178   6.327   4.930  0.0355  0.0794  0.1318
   98POPC   C1A  986   1.392   6.530   4.509  0.1079 -0.1823  0.2701
   98POPC   D2A  987   1.524   6.883   4.259  0.1699 -0.0325 -0.1980
   98POPC   C3A  988   1.414   6.809   3.840 -0.2201 -0.1936  0.1178
   98POPC   C4A  989   1.263   6.825   3.398 -0.1803  0.0394 -0.1906
   98POPC   C1B  990   0.894   6.431   4.619  0.3303 -0.0502 -0.0530
   98POPC   C2B  991   0.626   6.404   4.244  0.0296  0.2298 -0.1848
   98POPC   C3B  992   0.501   6.325   3.813 -0.1793 -0.1297  0.2436
   98POPC   C4B  993   0.356   6.113   3.406  0.2993 -0.1314 -0.0533
   99POPC   NC3  994   4.791   3.276   5.469  0.5860 -0.0206  0.0687
   99POPC   PO4  995   4.932   3.076   5.736 -0.0410  0.0614 -0.5130
   99POPC   GL1  996   5.086   2.787   5.562 -0.3124 -0.4286  0.0921
   99POPC   GL2  997   4.929   2.759   5.253  0.2546  0.2722 -0.0386
   99POPC   C1A  998   5.511   2.600   5.466 -0.0106  0.1160  0.0525
   99POPC   D2A  999   5.795   2.468   5.112  0.0336  0.0130  0.3053
   99POPC   C3A 1000   6.017   2.032   5.186 -0.1688 -0.0940 -0.0222
   99POPC   C4A 1001   6.282   1.658   5.310  0.0558  0.2005  0.1058
   99POPC   C1B 1002   4.939   2.851   4.768  0.0333 -0.2397  0.0784
   99POPC   C2B 1003   5.013   2.702   4.311 -0.0850  0.0169 -0.0503
   99POPC   C3B 1004   5.086   2.921   3.936 -0.3768  0.0884  0.6017
   99POPC   C4B 1005   4.802   3.288   3.672  0.1975  0.1716  0.2403
  100POPC   NC3 1006   8.840   6.936   5.567  0.0717  0.2819  0.2209
  100POPC   PO4 1007   8.783   6.578   5.388  0.1065  0.1798 -0.1572
  100POPC   GL1 1008   8.882   6.766   5.094  0.1841 -0.2047 -0.0761
  100POPC   GL2 1009   8.852   7.034   5.057 -0.2738 -0.0891  0.1093
  100POPC   C1A 1010   8.863   6.723   4.600 -0.0287  0.0857  0.6136
  100POPC   D2A 1011   8.781   6.619   4.139  0.2630  0.0436  0.2919
  100POPC   C3A 1012   8.591   6.901   3.834 -0.0738  0.0234  0.0250
  100POPC   C4A 1013   8.369   6.990   3.449  0.1340  0.2160 -0.0465
  100POPC   C1B 1014   8.785   7.274   4.660  0.1794  0.0746 -0.3282
  100POPC   C2B 1015   8.697   7.266   4.190  0.3257  0.1675  0.3319
  100POPC   C3B 1016   8.578   7.609   3.876  0.1007  0.3175 -0.0828
  100POPC   C4B 1017   8.439   7.988   3.656 -0.0170  0.2258 -0.0767
  101POPC   NC3 1018   0.767   0.510   5.069 -0.4082 -0.1347 -0.0191
  101POPC   PO4 1019   1.116   0.327   5.125  0.2904 -0.1815 -0.0732
  101POPC   GL1 1020   1.230   0.293   4.735 -0.1048  0.1681  0.1469
  101POPC   GL2 1021   1.138   0.116   4.478  0.0357 -0.1634  0.0018
  101POPC   C1A 1022   1.529   0.509   4.439  0.0649  0.0948  0.0938
  101POPC   D2A 1023   1.832   0.695   4.151 -0.1311  0.1273 -0.1423
  101POPC   C3A 1024   2.049   0.610   3.742  0.2085  0.0864 -0.0081
  101POPC   C4A 1025   1.936   0.505   3.345  0.2983 -0.1606 -0.2486
  101POPC   C1B 1026   1.585   0.036   4.461 -0.1372 -0.1445 -0.0586
  101POPC   C2B 1027   1.745   0.189   4.049  0.0528 -0.1603  0.1432
  101POPC   C3B 1028   1.892   0.085   3.637  0.0896  0.1618  0.0281
  101POPC   C4B 1029   2.019  -0.124   3.216  0.0074  0.0893  0.1362
  102POPE   NH3 1030   1.935   3.810   5.686  0.0197  0.2911  0.2306
  102POPE   PO4 1031   1.944   3.794   5.393  0.1218 -0.0255  0.1698
  102POPE   GL1 1032   1.796   3.967   5.012 -0.1767 -0.1346 -0.0154
  102POPE   GL2 1033   1.448   3.939   4.901 -0.0503  0.4997  0.0487
  102POPE   C1A 1034   2.041   4.246   4.750 -0.2471  0.3250  0.2988
  102POPE   D2A 1035   1.927   4.253   4.321 -0.0549 -0.1046 -0.1719
  102POPE   C3A 1036   2.018   4.458   3.922  0.0179 -0.0639 -0.3793
  102POPE   C4A 1037   2.240   4.578   3.560 -0.0323 -0.1109 -0.1614
  102POPE   C1B 1038   1.502   4.006   4.451  0.2286  0.2365 -0.1828
  102POPE   C2B 1039   1.255   4.288   4.164  0.0662  0.0230  0.3160
  102POPE   C3B 1040   1.020   4.320   3.719 -0.0602  0.0264 -0.0949
  102POPE   C4B 1041   0.924   3.975   3.436 -0.1634 -0.0117 -0.1565
  103POPE   NH3 1042   4.954   2.016   5.975 -0.0158 -0.1752 -0.2530
  103POPE   PO4 1043   5.150   1.832   5.837  0.0358 -0.0176  0.1294
  103POPE   GL1 1044   5.458   1.723   5.695 -0.1747 -0.3490 -0.2165
  103POPE   GL2 1045   5.582   1.877   5.423 -0.2174  0.3065 -0.0752
  103POPE   C1A 1046   5.826   1.448   5.514  0.1739  0.2161 -0.0472
  103POPE   D2A 1047   6.151   1.175   5.439  0.2147 -0.1362  0.6196
  103POPE   C3A 1048   6.122   1.207   4.959 -0.0612 -0.1253  0.0747
  103POPE   C4A 1049   6.163   1.076   4.534  0.3037 -0.0898  0.2154
  103POPE   C1B 1050   5.804   1.603   5.056 -0.0781 -0.1596 -0.3310
  103POPE   C2B 1051   6.015   1.767   4.729 -0.0072  0.1160  0.0302
  103POPE   C3B 1052   6.346   1.947   4.484  0.2701  0.1848  0.1527
  103POPE   C4B 1053   6.570   1.954   4.104  0.0168 -0.3332  0.0993
  104POPE   NH3 1054   4.204   5.571   6.149 -0.0065 -0.0932  0.1572
  104POPE   PO4 1055   4.320   5.662   5.867  0.1016  0.2129 -0.0507
  104POPE   GL1 1056   4.107   5.642   5.507  0.0242  0.0703 -0.3859
  104POPE   GL2 1057   4.171   5.966   5.478 -0.1688 -0.1777 -0.1317
  104POPE   C1A 1058   4.254   5.475   5.099 -0.0104  0.0831  0.0624
  104POPE   D2A 1059   4.282   5.486   4.624  0.0709 -0.1761 -0.0226
  104POPE   C3A 1060   3.891   5.411   4.353  0.3055  0.1857 -0.1056
  104POPE   C4A 1061   3.742   5.600   3.969  0.0262 -0.1804 -0.1865
  104POPE   C1B 1062   4.162   5.941   5.094 -0.0321 -0.4090  0.1324
  104POPE   C2B 1063   4.169   6.107   4.639 -0.1036 -0.2021 -0.0956
  104POPE   C3B 1064   4.327   6.403   4.330 -0.1046  0.2533 -0.0918
  104POPE   C4B 1065   4.194   6.584   3.925 -0.2181  0.1432 -0.0653
  105POPE   NH3 1066   2.838   1.427   6.147 -0.1456  0.1671 -0.0286
  105POPE   PO4 1067   2.790   1.363   5.845 -0.2886 -0.0171 -0.0535
  105POPE   GL1 1068   2.892   1.334   5.414 -0.1711  0.4346 -0.0840
  105POPE   GL2 1069   2.727   1.543   5.346  0.2598 -0.0042 -0.0384
  105POPE   C1A 1070   2.768   1.039   5.048  0.0728 -0.3122 -0.1285
  105POPE   D2A 1071   2.519   0.735   4.780 -0.0555 -0.3208 -0.0930
  105POPE   C3A 1072   2.723   0.477   4.480 -0.1892  0.0440 -0.2651
  105POPE   C4A 1073   2.794   0.260   4.074 -0.0423  0.0409 -0.0166
  105POPE   C1B 1074   2.898   1.533   4.895 -0.3286  0.3481 -0.1724
  105POPE   C2B 1075   3.150   1.523   4.510  0.2651 -0.1130 -0.1976
  105POPE   C3B 1076   3.057   1.577   4.043 -0.2951 -0.0824 -0.2346
  105POPE   C4B 1077   3.014   1.245   3.708 -0.0516 -0.2447  0.1656
  106POPE   NH3 1078   5.649   1.226   6.042 -0.4578  0.0703 -0.1766
  106POPE   PO4 1079   5.374   1.357   6.078 -0.4441 -0.2702 -0.1206
  106POPE   GL1 1080   5.171   1.442   5.629 -0.0828 -0.2488 -0.0893
  106POPE   GL2 1081   4.927   1.562   5.483 -0.3071 -0.2072 -0.0416
  106POPE   C1A 1082   5.347   1.455   5.203 -0.4027 -0.4570 -0.2079
  106POPE   D2A 1083   5.490   1.580   4.711  0.0661  0.0258  0.1128
  106POPE   C3A 1084   5.257   1.886   4.555 -0.0267 -0.3093  0.1460
  106POPE   C4A 1085   5.090   2.334   4.615 -0.1719 -0.2585  0.0560
  106POPE   C1B 1086   4.787   1.754   5.092  0.0332  0.1699 -0.0572
  106POPE   C2B 1087   4.676   1.973   4.702  0.0963 -0.0520  0.2656
  106POPE   C3B 1088   4.814   2.025   4.250 -0.4697  0.1723 -0.0263
  106POPE   C4B 1089   5.090   2.286   4.006  0.1136  0.1195  0.2631
  107POPE   NH3 1090   0.420   2.390   5.193 -0.0852 -0.0446 -0.1576
  107POPE   PO4 1091   0.671   2.542   5.146  0.3799  0.0001 -0.1239
  107POPE   GL1 1092   0.897   2.237   4.918  0.1715  0.0780  0.1875
  107POPE   GL2 1093   0.745   2.280   4.643 -0.1854 -0.0174 -0.4427
  107POPE   C1A 1094   1.237   2.298   4.572 -0.0337 -0.0822  0.0300
  107POPE   D2A 1095   1.647   2.497   4.504  0.3166 -0.1129  0.0728
  107POPE   C3A 1096   1.986   2.358   4.239 -0.1680 -0.0333 -0.2016
  107POPE   C4A 1097   1.858   2.076   3.894 -0.0050  0.1163  0.1599
  107POPE   C1B 1098   0.541   2.317   4.249 -0.3192 -0.1101  0.0825
  107POPE   C2B 1099   0.604   2.568   3.874  0.0489 -0.4903  0.1775
  107POPE   C3B 1100   0.381   2.784   3.522 -0.1609  0.0090 -0.1679
  107POPE   C4B 1101   0.219   2.693   3.129  0.0924 -0.0608 -0.1862
  108POPE   NH3 1102   4.494   4.337   5.777 -0.0999 -0.0411  0.0412
  108POPE   PO4 1103   4.753   4.349   5.655 -0.3873  0.1309 -0.1769
  108POPE   GL1 1104   4.752   4.414   5.378 -0.3202 -0.2740  0.3908
  108POPE   GL2 1105   4.991   4.319   5.186  0.1323  0.0528  0.0008
  108POPE   C1A 1106   4.875   4.830   5.094  0.0498  0.0581 -0.0216
  108POPE   D2A 1107   4.815   5.324   5.183  0.1698  0.2169  0.0467
  108POPE   C3A 1108   4.698   5.687   4.890  0.2079 -0.0199  0.3055
  108POPE   C4A 1109   4.643   6.081   4.779  0.2094  0.0106 -0.0382
  108POPE   C1B 1110   5.141   4.278   4.734  0.1523 -0.0005 -0.3950
  108POPE   C2B 1111   5.336   4.507   4.350 -0.0470 -0.0311  0.2900
  108POPE   C3B 1112   5.176   4.756   4.006  0.1982 -0.4960  0.2567
  108POPE   C4B 1113   5.384   5.166   3.762 -0.0363 -0.0465  0.1743
  109POPE   NH3 1114   5.845   5.731   5.566 -0.0596 -0.1119  0.1064
  109POPE   PO4 1115   6.090   5.835   5.437  0.1812  0.2048 -0.0060
  109POPE   GL1 1116   6.161   6.102   5.035  0.3247  0.2397 -0.1262
  109POPE   GL2 1117   6.412   6.037   4.899 -0.1425 -0.0755  0.0847
  109POPE   C1A 1118   5.927   6.406   4.741  0.0211  0.1027 -0.1213
  109POPE   D2A 1119   5.606   6.352   4.416 -0.1805  0.0911 -0.4074
  109POPE   C3A 1120   5.626   6.079   4.030  0.2623 -0.1092  0.2613
  109POPE   C4A 1121   5.408   5.657   3.934  0.0318 -0.2148  0.1750
  109POPE   C1B 1122   6.202   6.099   4.493 -0.1794  0.1195 -0.0049
  109POPE   C2B 1123   6.122   6.228   4.033  0.0529 -0.1937  0.2210
  109POPE   C3B 1124   5.971   6.168   3.604  0.2517 -0.0730  0.0570
  109POPE   C4B 1125   5.826   6.092   3.182 -0.0160  0.2016  0.2929
  110POPE   NH3 1126   8.876   3.226   5.287  0.3231  0.1393  0.1876
  110POPE   PO4 1127   8.776   3.226   4.992  0.0470  0.1406  0.0763
  110POPE   GL1 1128   8.705   3.098   4.644  0.4273  0.0131 -0.3195
  110POPE   GL2 1129   8.934   3.210   4.527 -0.1442  0.1340 -0.2656
  110POPE   C1A 1130   8.726   3.144   4.132 -0.0991 -0.2032  0.2029
  110POPE   D2A 1131   8.406   3.312   3.876 -0.0434  0.1470 -0.2571
  110POPE   C3A 1132   8.327   3.209   3.393  0.0589  0.0110 -0.0837
  110POPE   C4A 1133   8.472   3.365   2.998 -0.0194  0.1726  0.1874
  110POPE   C1B 1134   9.265   2.935   4.306  0.2281  0.2981  0.1371
  110POPE   C2B 1135   9.576   3.016   3.960  0.0148 -0.2084 -0.1683
  110POPE   C3B 1136   9.659   3.245   3.553 -0.1601 -0.2146  0.1918
  110POPE   C4B 1137   9.575   3.190   3.046 -0.3267  0.0646 -0.4557
  111POPE   NH3 1138   9.125   5.213   5.087 -0.2891 -0.1164 -0.1128
  111POPE   PO4 1139   8.860   5.080   5.108 -0.3887  0.1144 -0.0550
  111POPE   GL1 1140   8.877   4.978   4.667 -0.2621 -0.1699  0.2106
  111POPE   GL2 1141   9.007   5.193   4.445  0.0271 -0.2349  0.1031
  111POPE   C1A 1142   8.550   4.936   4.363  0.0875 -0.1533 -0.2700
  111POPE   D2A 1143   8.219   5.035   4.060 -0.0708  0.3180 -0.1474
  111POPE   C3A 1144   7.951   4.731   3.842 -0.2217 -0.2886  0.0024
  111POPE   C4A 1145   7.676   4.667   3.477  0.2657 -0.0491  0.1421
  111POPE   C1B 1146   8.626   5.438   4.275  0.0737  0.0169  0.0126
  111POPE   C2B 1147   8.600   5.722   3.905  0.1767 -0.0641 -0.1329
  111POPE   C3B 1148   8.288   5.824   3.534 -0.0068  0.0382 -0.5398
  111POPE   C4B 1149   8.093   5.859   3.091  0.0351 -0.2374 -0.0347
  112POPE   NH3 1150   2.519   6.298   5.827 -0.3088  0.1176  0.2424
  112POPE   PO4 1151   2.599   6.007   5.745 -0.2270  0.0539  0.0907
  112POPE   GL1 1152   2.724   5.894   5.383  0.3274  0.4069  0.2757
  112POPE   GL2 1153   2.644   6.159   5.224 -0.3080  0.2378  0.1026
  112POPE   C1A 1154   2.932   5.875   4.971 -0.0782  0.2169 -0.0178
  112POPE   D2A 1155   3.278   5.755   4.682  0.1410  0.1588 -0.2967
  112POPE   C3A 1156   3.348   5.577   4.279 -0.0791  0.3123 -0.0245
  112POPE   C4A 1157   3.493   5.166   4.121 -0.2071  0.3077  0.1752
  112POPE   C1B 1158   2.698   6.213   4.746 -0.1846  0.0220 -0.5975
  112POPE   C2B 1159   2.622   6.124   4.255 -0.3492 -0.1805 -0.1733
  112POPE   C3B 1160   2.380   6.178   3.875  0.0052  0.3494  0.1166
  112POPE   C4B 1161   2.017   6.234   3.556 -0.2706  0.1303  0.2170
  113POPE   NH3 1162   9.099   4.737   5.479 -0.0513 -0.1168 -0.1235
  113POPE   PO4 1163   9.409   4.776   5.491  0.0701  0.0736 -0.0638
  113POPE   GL1 1164   9.469   4.844   5.098  0.2474 -0.1189  0.2039
  113POPE   GL2 1165   9.251   4.689   4.937 -0.2403 -0.0205 -0.1259
  113POPE   C1A 1166   9.637   5.079   4.720  0.0634  0.0489 -0.1392
  113POPE   D2A 1167   9.508   5.389   4.399  0.1877 -0.0200 -0.1806
  113POPE   C3A 1168   9.744   5.426   3.952 -0.0604 -0.4996 -0.5549
  113POPE   C4A 1169  10.164   5.452   3.820  0.2109  0.0038 -0.1650
  113POPE   C1B 1170   9.316   4.812   4.503 -0.1158 -0.3389 -0.0718
  113POPE   C2B 1171   9.355   4.894   4.044  0.1740  0.0732 -0.0053
  113POPE   C3B 1172   9.340   5.239   3.732  0.2461 -0.2102 -0.2552
  113POPE   C4B 1173   9.279   5.578   3.397  0.0068  0.0376 -0.2319
  114POPE   NH3 1174   0.308   3.642   5.116 -0.0226 -0.1633 -0.1373
  114POPE   PO4 1175   0.155   3.406   5.236 -0.1102  0.3067  0.1727
  114POPE   GL1 1176   0.060   3.265   4.866  0.1909 -0.3996 -0.0954
  114POPE   GL2 1177   0.327   3.202   4.689 -0.0627  0.1971 -0.2232
  114POPE   C1A 1178   0.089   3.573   4.494 -0.1863  0.2478  0.1254
  114POPE   D2A 1179  -0.143   3.550   4.048 -0.0786 -0.0963 -0.1205
  114POPE   C3A 1180   0.067   3.283   3.743  0.0314 -0.1565 -0.0144
  114POPE   C4A 1181   0.001   3.095   3.333 -0.0947  0.1561  0.2498
  114POPE   C1B 1182   0.490   3.445   4.289 -0.0352 -0.2182  0.1734
  114POPE   C2B 1183   0.376   3.691   3.913  0.0089  0.0033 -0.2285
  114POPE   C3B 1184   0.462   4.078   3.610 -0.1272  0.2229  0.0860
  114POPE   C4B 1185   0.689   4.421   3.337  0.0573  0.1539 -0.1291
  115POPE   NH3 1186   6.021   3.808   5.349 -0.1299  0.1353  0.0664
  115POPE   PO4 1187   6.163   3.587   5.523  0.0226 -0.3004  0.0080
  115POPE   GL1 1188   6.327   3.612   5.129 -0.1610  0.1594 -0.1041
  115POPE   GL2 1189   6.547   3.787   4.998  0.0898 -0.1635 -0.3116
  115POPE   C1A 1190   6.159   3.720   4.737  0.0311 -0.0055  0.1823
  115POPE   D2A 1191   5.858   3.726   4.382  0.0931 -0.2484 -0.0190
  115POPE   C3A 1192   5.900   3.721   3.968  0.0261 -0.1362  0.1249
  115POPE   C4A 1193   5.793   3.473   3.613  0.0268  0.2488  0.0431
  115POPE   C1B 1194   6.611   3.500   4.585  0.0954 -0.1641  0.2632
  115POPE   C2B 1195   6.744   3.397   4.158  0.0436  0.4032 -0.2228
  115POPE   C3B 1196   6.867   3.069   3.832  0.0812  0.0568  0.0318
  115POPE   C4B 1197   6.967   2.851   3.463  0.1160  0.3461  0.2777
  116POPE   NH3 1198   3.381   3.823   5.859  0.1554  0.0986 -0.1492
  116POPE   PO4 1199   3.634   3.782   5.650  0.2225 -0.0465 -0.1997
  116POPE   GL1 1200   3.610   3.907   5.286 -0.1033 -0.2994  0.2925
  116POPE   GL2 1201   3.880   3.822   5.169  0.1599  0.1615 -0.0707
  116POPE   C1A 1202   3.772   4.292   5.132 -0.3822  0.1247  0.0887
  116POPE   D2A 1203   3.934   4.674   4.927 -0.2765 -0.3163  0.0585
  116POPE   C3A 1204   3.949   5.162   4.911 -0.1350  0.1522 -0.0982
  116POPE   C4A 1205   3.804   5.596   4.907  0.0276 -0.0854  0.1796
  116POPE   C1B 1206   4.201   3.882   4.873  0.0463  0.0479 -0.3505
  116POPE   C2B 1207   4.216   3.918   4.404 -0.0287  0.1411 -0.0366
  116POPE   C3B 1208   4.353   4.137   4.006  0.0589  0.2068  0.0126
  116POPE   C4B 1209   4.475   4.414   3.633 -0.0113  0.0978 -0.1729
  117POPE   NH3 1210   4.207   8.609   5.480  0.0150  0.3613 -0.0354
  117POPE   PO4 1211   4.494   8.579   5.610 -0.0644 -0.0429 -0.0155
  117POPE   GL1 1212   4.632   8.379   5.243  0.2185  0.1494  0.2097
  117POPE   GL2 1213   4.777   8.628   5.097  0.1241  0.2126 -0.1717
  117POPE   C1A 1214   4.610   8.276   4.814 -0.1015 -0.1232  0.0390
  117POPE   D2A 1215   4.751   8.040   4.415  0.2676  0.0637 -0.0683
  117POPE   C3A 1216   4.565   8.142   3.985 -0.2309  0.2800 -0.0649
  117POPE   C4A 1217   4.623   8.038   3.536  0.2114 -0.0830 -0.0124
  117POPE   C1B 1218   4.937   8.972   4.820 -0.0642  0.0094 -0.0585
  117POPE   C2B 1219   5.060   9.104   4.355 -0.0521  0.1704 -0.0603
  117POPE   C3B 1220   5.079   8.925   3.914 -0.0306  0.0953 -0.0426
  117POPE   C4B 1221   4.841   9.164   3.594  0.0418 -0.3435  0.0693
  118POPE   NH3 1222   5.762   3.834   5.852  0.1707 -0.0650 -0.0557
  118POPE   PO4 1223   5.865   4.088   5.692 -0.1449 -0.0724  0.3718
  118POPE   GL1 1224   5.645   4.025   5.403 -0.0450 -0.1380  0.2142
  118POPE   GL2 1225   5.449   4.225   5.389  0.4774  0.0074  0.2363
  118POPE   C1A 1226   5.661   3.944   4.960 -0.3310  0.1372 -0.1319
  118POPE   D2A 1227   5.523   4.038   4.488  0.1591  0.1542 -0.0084
  118POPE   C3A 1228   5.811   4.217   4.208  0.0139  0.0631 -0.1363
  118POPE   C4A 1229   5.901   4.363   3.783  0.0688  0.2735  0.0220
  118POPE   C1B 1230   5.474   4.494   5.050 -0.1176 -0.0908 -0.0995
  118POPE   C2B 1231   5.701   4.841   4.986 -0.2688 -0.1385  0.2865
  118POPE   C3B 1232   5.760   5.179   4.656  0.0341 -0.2029  0.2088
  118POPE   C4B 1233   6.073   5.584   4.703  0.1433 -0.2413  0.1950
  119POPE   NH3 1234   6.722   1.157   5.713 -0.0208 -0.0902  0.0866
  119POPE   PO4 1235   6.870   0.850   5.750  0.2121 -0.4650 -0.0907
  119POPE   GL1 1236   6.806   0.847   5.346  0.1756 -0.3786  0.0594
  119POPE   GL2 1237   7.049   1.054   5.305  0.1735 -0.1001  0.2756
  119POPE   C1A 1238   6.941   0.623   4.999 -0.4340 -0.2041 -0.2785
  119POPE   D2A 1239   7.090   0.442   4.641  0.1037 -0.0807 -0.0449
  119POPE   C3A 1240   6.895   0.212   4.372 -0.1084  0.1592  0.2933
  119POPE   C4A 1241   6.511  -0.053   4.197  0.1117 -0.1619 -0.1824
  119POPE   C1B 1242   7.049   1.146   4.852 -0.0115  0.0145  0.1196
  119POPE   C2B 1243   7.118   1.265   4.436  0.0404  0.1813 -0.0112
  119POPE   C3B 1244   6.890   1.360   4.067  0.1224  0.1859  0.0815
  119POPE   C4B 1245   6.554   1.562   3.840 -0.0950 -0.5268 -0.2093
  120POPE   NH3 1246   3.080   5.834   5.609  0.0659  0.1208 -0.2010
  120POPE   PO4 1247   3.311   6.037   5.671  0.0468  0.0701  0.1859
  120POPE   GL1 1248   3.322   6.033   5.254 -0.0442  0.2209  0.0100
  120POPE   GL2 1249   3.202   6.267   5.157  0.2209 -0.2978  0.4020
  120POPE   C1A 1250   3.627   6.052   4.912 -0.0943  0.3294  0.2898
  120POPE   D2A 1251   3.725   5.894   4.480 -0.0566  0.0622  0.0583
  120POPE   C3A 1252   4.010   6.060   4.102 -0.3230 -0.0597  0.0680
  120POPE   C4A 1253   3.846   6.217   3.730 -0.4734 -0.1538  0.5744
  120POPE   C1B 1254   3.188   6.249   4.679 -0.1097 -0.0342  0.0231
  120POPE   C2B 1255   3.107   6.013   4.291  0.2183 -0.1559 -0.1047
  120POPE   C3B 1256   3.178   6.076   3.844  0.0747  0.1279 -0.3493
  120POPE   C4B 1257   2.909   6.206   3.529  0.2466  0.0507  0.0447
  121POPE   NH3 1258   7.158   3.798   5.115 -0.1248  0.2640 -0.0351
  121POPE   PO4 1259   7.324   3.579   4.969  0.0510 -0.2504  0.0875
  121POPE   GL1 1260   7.272   3.644   4.584 -0.2130  0.0531  0.0694
  121POPE   GL2 1261   7.013   3.768   4.607  0.3736 -0.1965 -0.0344
  121POPE   C1A 1262   7.557   3.859   4.354 -0.3351 -0.0054  0.1199
  121POPE   D2A 1263   7.705   3.921   3.887  0.2264 -0.1176  0.1468
  121POPE   C3A 1264   7.978   4.240   3.740 -0.2789 -0.1908  0.0564
  121POPE   C4A 1265   8.379   4.319   3.600 -0.1510 -0.0951 -0.1476
  121POPE   C1B 1266   7.192   3.652   4.126 -0.3015 -0.0516  0.2336
  121POPE   C2B 1267   7.503   3.411   3.858  0.3413 -0.1432  0.0106
  121POPE   C3B 1268   7.845   3.148   3.614  0.0099  0.1090 -0.1895
  121POPE   C4B 1269   7.842   2.828   3.273 -0.0091 -0.0230 -0.2577
  122POPE   NH3 1270   3.886   0.209   5.505  0.0034 -0.1123 -0.0159
  122POPE   PO4 1271   3.919  -0.099   5.377  0.1360  0.0863 -0.2584
  122POPE   GL1 1272   3.887  -0.418   5.124  0.2060 -0.1063  0.2396
  122POPE   GL2 1273   3.875  -0.213   4.855 -0.3859 -0.2235 -0.1462
  122POPE   C1A 1274   3.777  -0.660   4.698  0.2312 -0.1641  0.0959
  122POPE   D2A 1275   3.599  -0.702   4.305 -0.4313 -0.0191  0.0049
  122POPE   C3A 1276   3.334  -0.903   4.020  0.1240  0.1716  0.0009
  122POPE   C4A 1277   2.964  -1.158   4.308  0.0176  0.0861  0.0879
  122POPE   C1B 1278   4.033  -0.254   4.458  0.0301  0.0318  0.0965
  122POPE   C2B 1279   4.412  -0.006   4.189  0.1942  0.2941 -0.1188
  122POPE   C3B 1280   4.354   0.144   3.765 -0.4099 -0.2512  0.0431
  122POPE   C4B 1281   4.456  -0.043   3.324 -0.4753 -0.1450 -0.0224
  123POPE   NH3 1282   7.402   6.352   5.142 -0.1543 -0.3297 -0.2847
  123POPE   PO4 1283   7.717   6.315   5.065 -0.4663 -0.2377  0.0379
  123POPE   GL1 1284   7.644   6.258   4.707 -0.0317 -0.2077  0.0016
  123POPE   GL2 1285   7.590   6.629   4.634  0.1416 -0.0360  0.0433
  123POPE   C1A 1286   7.432   6.323   4.292 -0.0859  0.2590  0.0869
  123POPE   D2A 1287   7.336   6.688   4.013 -0.3893 -0.1089 -0.2188
  123POPE   C3A 1288   7.553   7.000   3.835 -0.1657  0.3509  0.2673
  123POPE   C4A 1289   7.854   7.136   3.479 -0.0010  0.1659  0.0601
  123POPE   C1B 1290   7.108   6.557   4.757 -0.2079 -0.1136  0.0985
  123POPE   C2B 1291   6.858   6.358   4.415  0.1522  0.1558 -0.1407
  123POPE   C3B 1292   6.567   6.083   4.164 -0.0742  0.0146 -0.0216
  123POPE   C4B 1293   6.428   6.025   3.769 -0.1342 -0.1380  0.0008
  124POPE   NH3 1294   9.025   5.643   4.864  0.0361 -0.0226 -0.1093
  124POPE   PO4 1295   9.302   5.644   4.777  0.1286  0.0376 -0.2993
  124POPE   GL1 1296   9.186   5.703   4.437 -0.1246  0.0413  0.0691
  124POPE   GL2 1297   8.932   5.832   4.369  0.1117  0.2169 -0.2661
  124POPE   C1A 1298   9.099   5.538   4.068  0.2218 -0.0572  0.0446
  124POPE   D2A 1299   8.799   5.264   3.806 -0.2221 -0.1807 -0.6443
  124POPE   C3A 1300   8.377   5.246   3.564 -0.3905  0.0143  0.2221
  124POPE   C4A 1301   8.094   4.923   3.461 -0.2869 -0.1613 -0.0171
  124POPE   C1B 1302   9.007   6.177   4.043 -0.0090 -0.0375  0.2784
  124POPE   C2B 1303   9.085   6.541   3.772 -0.0850 -0.0975  0.1750
  124POPE   C3B 1304   8.859   6.729   3.433  0.2809  0.1217  0.4034
  124POPE   C4B 1305   8.621   6.588   3.057  0.0085  0.0732  0.0965
  125POPE   NH3 1306   6.109   5.047   5.512  0.0010  0.0702  0.1650
  125POPE   PO4 1307   5.853   5.200   5.694  0.1731  0.4995 -0.0352
  125POPE   GL1 1308   5.764   5.226   5.248 -0.0850  0.1880 -0.0280
  125POPE   GL2 1309   5.988   5.448   5.149 -0.0875  0.2278  0.0196
  125POPE   C1A 1310   5.334   5.124   5.125 -0.0617  0.0852 -0.1204
  125POPE   D2A 1311   5.251   4.842   4.709  0.1115  0.3104 -0.2542
  125POPE   C3A 1312   4.873   4.702   4.500  0.0314 -0.3258  0.1145
  125POPE   C4A 1313   4.584   4.741   4.121 -0.1845  0.1396 -0.1507
  125POPE   C1B 1314   5.541   5.539   4.921 -0.0983 -0.0045  0.0399
  125POPE   C2B 1315   5.163   5.488   4.687  0.2119 -0.1316 -0.1179
  125POPE   C3B 1316   4.795   5.605   4.383 -0.1446  0.0469  0.0931
  125POPE   C4B 1317   4.896   5.643   3.957  0.0887 -0.1047 -0.0033
  126POPE   NH3 1318   3.605   1.949   5.535 -0.1048  0.0267 -0.0326
  126POPE   PO4 1319   3.669   1.621   5.564  0.0266  0.0356  0.0377
  126POPE   GL1 1320   3.803   1.708   5.220 -0.0044  0.0378 -0.1590
  126POPE   GL2 1321   4.029   1.533   5.141 -0.2233  0.0805  0.1428
  126POPE   C1A 1322   3.637   1.460   4.832 -0.1462  0.1029  0.0263
  126POPE   D2A 1323   3.652   1.242   4.437 -0.1173  0.1140  0.0071
  126POPE   C3A 1324   3.273   1.110   4.211  0.4214 -0.3590 -0.0832
  126POPE   C4A 1325   2.901   0.892   4.041  0.2258  0.2728 -0.1617
  126POPE   C1B 1326   4.251   1.799   4.847  0.0178  0.2612 -0.3912
  126POPE   C2B 1327   4.156   2.166   4.551  0.3241  0.1570  0.0001
  126POPE   C3B 1328   3.888   2.519   4.414  0.1524  0.0514  0.2926
  126POPE   C4B 1329   3.560   2.625   4.147 -0.2396  0.0605 -0.1238
  127POPE   NH3 1330   2.053   3.329   5.262  0.2339 -0.0997  0.1606
  127POPE   PO4 1331   2.285   3.119   5.296  0.0642  0.0504  0.3103
  127POPE   GL1 1332   2.301   3.025   4.872 -0.0559 -0.1777 -0.0193
  127POPE   GL2 1333   2.075   3.182   4.755  0.1550 -0.2817 -0.1747
  127POPE   C1A 1334   2.562   2.841   4.533 -0.0991  0.0356  0.0720
  127POPE   D2A 1335   2.881   2.483   4.395  0.2325  0.2795  0.0205
  127POPE   C3A 1336   3.131   2.442   3.982  0.0925  0.0387  0.2075
  127POPE   C4A 1337   3.391   2.438   3.622  0.1489  0.2551  0.1398
  127POPE   C1B 1338   1.916   3.314   4.329 -0.1131  0.0721 -0.0432
  127POPE   C2B 1339   2.131   3.445   3.957 -0.1696 -0.1063  0.1221
  127POPE   C3B 1340   2.499   3.571   3.738 -0.1786  0.1240 -0.2598
  127POPE   C4B 1341   2.943   3.657   3.720  0.1441 -0.0536  0.0896
  128POPE   NH3 1342   3.259   8.200   5.703  0.1392  0.0568  0.2905
  128POPE   PO4 1343   3.193   8.398   5.505  0.3351  0.1360 -0.1383
  128POPE   GL1 1344   3.176   8.365   5.171 -0.1771 -0.0316  0.2375
  128POPE   GL2 1345   3.131   8.219   4.994 -0.2754  0.0373 -0.5468
  128POPE   C1A 1346   3.373   8.682   4.831  0.1123 -0.0285 -0.2104
  128POPE   D2A 1347   3.491   9.035   4.581 -0.1444  0.1302  0.0802
  128POPE   C3A 1348   3.782   9.346   4.449  0.1277 -0.0147  0.0041
  128POPE   C4A 1349   4.072   9.542   4.140 -0.1189  0.1563 -0.2864
  128POPE   C1B 1350   3.299   8.236   4.603 -0.0615  0.1128  0.2046
  128POPE   C2B 1351   3.502   7.895   4.377 -0.1106  0.2409  0.0426
  128POPE   C3B 1352   3.744   7.548   4.190  0.0375 -0.0933  0.0207
  128POPE   C4B 1353   4.010   7.236   3.975  0.0054  0.1488 -0.1077
  129POPE   NH3 1354   2.176   0.693   5.690  0.0847  0.0750 -0.0586
  129POPE   PO4 1355   2.054   0.603   5.375 -0.1328  0.1010 -0.0431
  129POPE   GL1 1356   1.991   0.501   4.981 -0.0672 -0.1258 -0.3395
  129POPE   GL2 1357   1.699   0.433   4.879  0.0236  0.0280  0.0198
  129POPE   C1A 1358   2.058   0.810   4.592  0.0342  0.5014 -0.0477
  129POPE   D2A 1359   2.368   0.797   4.208  0.1207 -0.2550 -0.0724
  129POPE   C3A 1360   2.523   0.637   3.848  0.0341  0.0270 -0.2098
  129POPE   C4A 1361   2.407   0.261   3.620 -0.0900  0.2490 -0.1767
  129POPE   C1B 1362   2.069   0.283   4.587  0.0666 -0.0872 -0.0725
  129POPE   C2B 1363   2.257   0.237   4.147  0.1766 -0.1521 -0.0565
  129POPE   C3B 1364   2.211  -0.134   3.924 -0.3077  0.0933 -0.0863
  129POPE   C4B 1365   2.179  -0.420   3.578 -0.2524 -0.2093 -0.1174
  130POPE   NH3 1366   9.066   3.833   5.424 -0.3143 -0.2042 -0.0608
  130POPE   PO4 1367   9.265   4.077   5.345  0.0753 -0.1555 -0.0894
  130POPE   GL1 1368   9.358   4.203   4.977  0.0117 -0.1895 -0.2919
  130POPE   GL2 1369   9.109   4.171   4.790  0.2466 -0.2350 -0.1176
  130POPE   C1A 1370   9.592   3.966   4.674  0.1467 -0.1525  0.0207
  130POPE   D2A 1371   9.686   4.023   4.257 -0.0419  0.2650 -0.3472
  130POPE   C3A 1372  10.094   3.893   4.133 -0.2903 -0.2666  0.1366
  130POPE   C4A 1373  10.495   3.923   3.851 -0.2424 -0.1820 -0.0392
  130POPE   C1B 1374   9.272   4.318   4.378 -0.2088 -0.0950 -0.0903
  130POPE   C2B 1375   9.389   4.417   3.902  0.0669 -0.4013 -0.1191
  130POPE   C3B 1376   9.375   4.686   3.521  0.0066  0.3179  0.3827
  130POPE   C4B 1377   9.086   5.027   3.379 -0.0053  0.2914  0.0967
  131POPE   NH3 1378   3.914   5.374   5.814  0.1429  0.1059 -0.1264
  131POPE   PO4 1379   3.885   5.040   5.830 -0.0562  0.1432 -0.1806
  131POPE   GL1 1380   4.082   4.861   5.422  0.0061 -0.1938 -0.2536
  131POPE   GL2 1381   3.795   4.709   5.422 -0.1893  0.1276  0.0869
  131POPE   C1A 1382   4.379   4.959   5.061 -0.3546  0.1157  0.5608
  131POPE   D2A 1383   4.626   5.128   4.707 -0.0296 -0.3504 -0.1008
  131POPE   C3A 1384   4.352   5.183   4.268 -0.0502 -0.1985 -0.1822
  131POPE   C4A 1385   4.035   5.118   3.957 -0.1325  0.1030 -0.3355
  131POPE   C1B 1386   4.239   4.507   5.257  0.0851  0.2914 -0.3457
  131POPE   C2B 1387   4.489   4.406   4.908 -0.0101 -0.0498 -0.1671
  131POPE   C3B 1388   4.540   4.362   4.471  0.0467 -0.1766 -0.0449
  131POPE   C4B 1389   4.812   4.268   4.149  0.0096 -0.2962  0.1124
  132POPE   NH3 1390   0.194   1.342   5.168  0.0094 -0.3711 -0.0082
  132POPE   PO4 1391   0.331   1.676   5.172  0.0290  0.0729  0.2332
  132POPE   GL1 1392   0.045   1.701   4.931  0.0418 -0.1562  0.2104
  132POPE   GL2 1393   0.248   1.589   4.665 -0.0684 -0.1432 -0.2382
  132POPE   C1A 1394  -0.206   2.016   4.670 -0.1348  0.2047 -0.2293
  132POPE   D2A 1395  -0.519   2.291   4.783  0.0778 -0.0070  0.0717
  132POPE   C3A 1396  -0.587   2.183   4.315 -0.0890 -0.0060 -0.0635
  132POPE   C4A 1397  -0.903   2.484   4.155 -0.4764  0.0196 -0.1087
  132POPE   C1B 1398   0.214   1.893   4.332  0.2668 -0.2020  0.1061
  132POPE   C2B 1399   0.032   2.032   3.945 -0.1293  0.1789 -0.0228
  132POPE   C3B 1400   0.141   2.042   3.508  0.1991  0.0393 -0.1731
  132POPE   C4B 1401   0.168   2.165   3.056  0.1484 -0.0716 -0.1303
  133POPE   NH3 1402   0.195   7.179   5.289  0.1465  0.0442  0.1899
  133POPE   PO4 1403   0.200   6.872   5.381  0.0403 -0.0214  0.2829
  133POPE   GL1 1404   0.296   6.766   4.945 -0.0271  0.3598 -0.1375
  133POPE   GL2 1405   0.117   6.932   4.802 -0.1090 -0.0369  0.0670
  133POPE   C1A 1406   0.534   6.858   4.557  0.0466 -0.3988 -0.0268
  133POPE   D2A 1407   0.761   7.271   4.516 -0.0651  0.0636  0.1048
  133POPE   C3A 1408   0.688   7.599   4.191  0.0108  0.6827  0.2022
  133POPE   C4A 1409   0.733   7.934   3.855  0.0327  0.0082 -0.0250
  133POPE   C1B 1410   0.039   7.169   4.400 -0.2361  0.4632  0.0526
  133POPE   C2B 1411  -0.013   7.028   4.014 -0.4932 -0.1049 -0.0910
  133POPE   C3B 1412   0.157   7.000   3.543 -0.0682 -0.0628 -0.0956
  133POPE   C4B 1413   0.213   6.616   3.279 -0.1860  0.0979  0.0777
  134POPE   NH3 1414   5.046   3.970   5.650  0.1683 -0.2477 -0.1332
  134POPE   PO4 1415   5.313   3.793   5.698 -0.0450  0.1457 -0.0819
  134POPE   GL1 1416   5.234   3.584   5.309 -0.5625 -0.3608 -0.5342
  134POPE   GL2 1417   5.158   3.861   5.176 -0.0057 -0.0821 -0.0016
  134POPE   C1A 1418   5.243   3.229   4.964 -0.0616  0.4016  0.1876
  134POPE   D2A 1419   5.269   3.171   4.561 -0.3395 -0.0816 -0.0078
  134POPE   C3A 1420   4.889   3.360   4.364  0.3127 -0.1874 -0.3192
  134POPE   C4A 1421   4.746   3.659   4.055  0.0938 -0.1638  0.0991
  134POPE   C1B 1422   5.183   3.673   4.770 -0.1726 -0.0673  0.0076
  134POPE   C2B 1423   5.364   3.628   4.327  0.1484  0.2538  0.0555
  134POPE   C3B 1424   5.403   3.468   3.938  0.0047  0.1118 -0.0500
  134POPE   C4B 1425   5.291   3.333   3.517 -0.0886 -0.2736  0.0597
  135POPE   NH3 1426   6.945   4.360   5.671  0.0914 -0.0981  0.2622
  135POPE   PO4 1427   6.930   4.161   5.420 -0.0207  0.1446 -0.0899
  135POPE   GL1 1428   6.786   4.126   5.140  0.4598 -0.0674 -0.6133
  135POPE   GL2 1429   7.020   4.311   4.973  0.3662  0.0312 -0.0749
  135POPE   C1A 1430   6.386   4.253   4.937 -0.3249  0.0055 -0.0438
  135POPE   D2A 1431   6.152   4.149   4.523  0.2058  0.1175  0.1813
  135POPE   C3A 1432   6.281   4.206   4.091  0.3410 -0.0098  0.0836
  135POPE   C4A 1433   6.234   3.939   3.689 -0.1450  0.0069 -0.2494
  135POPE   C1B 1434   6.755   4.233   4.559  0.0798 -0.1284  0.0578
  135POPE   C2B 1435   6.675   3.914   4.195 -0.3239  0.1044 -0.2255
  135POPE   C3B 1436   6.792   3.723   3.800 -0.1239 -0.3777 -0.1276
  135POPE   C4B 1437   7.020   3.413   3.576 -0.1732  0.2220  0.1468
  136POPE   NH3 1438   7.664   3.611   5.340 -0.3724  0.2198 -0.1475
  136POPE   PO4 1439   7.690   3.906   5.353 -0.1304  0.0811  0.3863
  136POPE   GL1 1440   7.673   3.808   4.849 -0.0238 -0.5624  0.1037
  136POPE   GL2 1441   7.469   4.056   4.800 -0.0820 -0.1741  0.3378
  136POPE   C1A 1442   7.903   4.150   4.650  0.1761 -0.1055  0.0640
  136POPE   D2A 1443   7.941   4.255   4.197  0.1004 -0.1440  0.0029
  136POPE   C3A 1444   7.548   4.429   4.009 -0.1106  0.5321 -0.1119
  136POPE   C4A 1445   7.234   4.667   3.715 -0.0203 -0.0166 -0.3562
  136POPE   C1B 1446   7.425   4.309   4.446 -0.1028 -0.2112  0.1494
  136POPE   C2B 1447   7.044   4.247   4.166 -0.0651 -0.0082  0.4100
  136POPE   C3B 1448   7.089   4.097   3.761 -0.0244 -0.2529  0.0581
  136POPE   C4B 1449   7.258   3.873   3.399 -0.3223 -0.1757  0.0101
  137POPE   NH3 1450   1.887   2.037   5.430 -0.1439 -0.1597  0.0450
  137POPE   PO4 1451   2.132   2.006   5.670  0.0478  0.1733 -0.1738
  137POPE   GL1 1452   2.305   1.926   5.287  0.1998  0.3159 -0.3969
  137POPE   GL2 1453   2.265   2.160   5.074  0.1179  0.0022  0.2274
  137POPE   C1A 1454   2.242   1.503   5.136  0.0237 -0.0908 -0.3435
  137POPE   D2A 1455   2.272   1.325   4.702  0.0065  0.2808 -0.1315
  137POPE   C3A 1456   2.074   1.302   4.355 -0.0666 -0.2876 -0.4527
  137POPE   C4A 1457   1.796   1.287   4.022  0.0004 -0.0263 -0.1236
  137POPE   C1B 1458   2.381   1.855   4.790 -0.0934 -0.2263  0.0028
  137POPE   C2B 1459   2.761   1.839   4.497  0.2277 -0.2580  0.1882
  137POPE   C3B 1460   3.147   2.034   4.227  0.0299  0.1441 -0.2153
  137POPE   C4B 1461   3.572   2.142   4.015 -0.1209  0.0396  0.0406
  138POPE   NH3 1462   8.299   5.176   5.293  0.0253  0.2156 -0.0278
  138POPE   PO4 1463   8.189   5.428   5.085 -0.0868  0.0498  0.2272
  138POPE   GL1 1464   8.070   5.491   4.744  0.0408 -0.1415 -0.3334
  138POPE   GL2 1465   8.189   5.212   4.637  0.1365  0.0068 -0.2216
  138POPE   C1A 1466   8.118   5.681   4.318 -0.0626  0.2994  0.0396
  138POPE   D2A 1467   8.040   5.526   3.892 -0.0570 -0.1972 -0.0278
  138POPE   C3A 1468   7.697   5.757   3.714 -0.1751  0.1199 -0.1740
  138POPE   C4A 1469   7.382   5.545   3.426 -0.2059  0.1532  0.1792
  138POPE   C1B 1470   7.734   5.316   4.428 -0.0978 -0.0177 -0.5049
  138POPE   C2B 1471   7.572   5.401   4.019 -0.0043 -0.0131  0.1345
  138POPE   C3B 1472   7.651   5.138   3.609 -0.2624  0.2761 -0.2118
  138POPE   C4B 1473   7.550   5.055   3.162  0.0595 -0.0070 -0.5546
  139POPE   NH3 1474   8.223   3.773   5.407  0.3385  0.2897  0.0223
  139POPE   PO4 1475   8.111   3.657   5.080 -0.1340  0.0440 -0.1255
  139POPE   GL1 1476   8.370   3.495   4.788 -0.1930  0.0369  0.1977
  139POPE   GL2 1477   8.262   3.245   4.680 -0.0425  0.2201 -0.1685
  139POPE   C1A 1478   8.610   3.558   4.399  0.0216 -0.3338  0.1112
  139POPE   D2A 1479   8.554   3.755   4.024  0.1216 -0.2386  0.0634
  139POPE   C3A 1480   8.163   3.679   3.738 -0.0791 -0.0495  0.0961
  139POPE   C4A 1481   7.724   3.639   3.460 -0.1943 -0.1141 -0.0094
  139POPE   C1B 1482   8.230   2.994   4.307 -0.0948 -0.1456  0.0889
  139POPE   C2B 1483   8.273   2.877   3.893 -0.1833 -0.1787  0.1146
  139POPE   C3B 1484   8.334   2.623   3.510 -0.0108  0.1646 -0.1599
  139POPE   C4B 1485   8.370   2.466   3.105  0.1522  0.2066  0.0208
  140POPE   NH3 1486   6.688   0.371   6.001 -0.0192  0.0308  0.1617
  140POPE   PO4 1487   7.003   0.345   5.844 -0.0145  0.2376 -0.1302
  140POPE   GL1 1488   7.129   0.122   5.451  0.3800 -0.0642  0.0719
  140POPE   GL2 1489   7.389   0.025   5.444 -0.1063 -0.1993 -0.3365
  140POPE   C1A 1490   7.382   0.376   5.121  0.3093  0.1802 -0.1126
  140POPE   D2A 1491   7.815   0.431   4.972  0.0156 -0.2545 -0.1759
  140POPE   C3A 1492   7.992   0.160   4.660  0.0118  0.1825 -0.0801
  140POPE   C4A 1493   7.866  -0.109   4.305  0.0498  0.3117 -0.1703
  140POPE   C1B 1494   7.141  -0.249   5.219  0.2642 -0.0649  0.0946
  140POPE   C2B 1495   7.149  -0.343   4.814  0.3449  0.1280  0.6354
  140POPE   C3B 1496   6.990  -0.426   4.383  0.2194 -0.3256 -0.0018
  140POPE   C4B 1497   6.845  -0.485   3.929  0.0080 -0.2123 -0.0051
  141POPE   NH3 1498   7.244   2.804   5.238  0.2109 -0.3275  0.1678
  141POPE   PO4 1499   7.360   3.047   5.058 -0.0167 -0.1410  0.0217
  141POPE   GL1 1500   7.363   3.168   4.700 -0.4487 -0.2084  0.0574
  141POPE   GL2 1501   7.155   3.225   4.565  0.2280 -0.0742 -0.2934
  141POPE   C1A 1502   7.691   3.328   4.432  0.1310  0.3461  0.0122
  141POPE   D2A 1503   7.989   3.379   4.098  0.0508 -0.1642  0.1593
  141POPE   C3A 1504   8.091   3.754   4.236  0.2232 -0.0858  0.1275
  141POPE   C4A 1505   8.357   4.067   4.380 -0.1904 -0.2532  0.1417
  141POPE   C1B 1506   7.230   3.061   4.142 -0.0070  0.2331  0.1141
  141POPE   C2B 1507   7.394   2.820   3.757  0.0170 -0.0173 -0.0607
  141POPE   C3B 1508   7.395   2.550   3.385  0.1263 -0.0416  0.0985
  141POPE   C4B 1509   7.514   2.286   2.993  0.0701  0.1544  0.1160
  142POPE   NH3 1510   1.585   5.347   5.435 -0.0579  0.1145  0.3302
  142POPE   PO4 1511   1.833   5.421   5.648 -0.1493  0.1530 -0.1259
  142POPE   GL1 1512   2.228   5.661   5.394 -0.0141 -0.3490 -0.1962
  142POPE   GL2 1513   1.983   5.668   5.250  0.1047  0.0307  0.2771
  142POPE   C1A 1514   2.549   5.576   5.054 -0.1558 -0.3172 -0.1066
  142POPE   D2A 1515   2.655   5.681   4.574  0.3043  0.1706  0.3395
  142POPE   C3A 1516   2.677   5.580   4.101  0.3571 -0.0191  0.0138
  142POPE   C4A 1517   2.800   5.750   3.667 -0.2017  0.0099  0.1034
  142POPE   C1B 1518   2.200   5.787   4.799 -0.2669 -0.0576  0.0940
  142POPE   C2B 1519   2.085   5.888   4.341  0.3916 -0.1217  0.1483
  142POPE   C3B 1520   2.037   5.865   3.918  0.2479  0.0700 -0.1154
  142POPE   C4B 1521   1.698   5.809   3.534  0.1252 -0.1324  0.0785
  143POPE   NH3 1522   4.956   8.793   5.642 -0.4549 -0.2319 -0.0104
  143POPE   PO4 1523   5.172   8.661   5.484  0.0976  0.0400  0.0402
  143POPE   GL1 1524   5.312   8.869   5.233 -0.0581  0.1845  0.0213
  143POPE   GL2 1525   5.177   9.143   5.235  0.0698 -0.1606  0.1764
  143POPE   C1A 1526   5.435   8.785   4.806  0.3040 -0.0911 -0.0666
  143POPE   D2A 1527   5.329   8.703   4.362  0.3683  0.4040  0.0632
  143POPE   C3A 1528   5.566   8.381   4.132  0.1828  0.0040  0.0014
  143POPE   C4A 1529   5.989   8.443   3.872  0.0226  0.2258  0.0964
  143POPE   C1B 1530   5.306   9.301   4.800  0.1591  0.2529 -0.0562
  143POPE   C2B 1531   5.542   9.185   4.408  0.2442  0.2229 -0.3517
  143POPE   C3B 1532   5.738   9.029   4.026 -0.1639 -0.0371 -0.0778
  143POPE   C4B 1533   5.672   9.134   3.602 -0.1551  0.0883 -0.0355
  144POPC   NC3 1534   2.219   0.718   1.915  0.0155 -0.0324  0.0515
  144POPC   PO4 1535   2.572   0.822   1.728 -0.0610 -0.2582 -0.1236
  144POPC   GL1 1536   2.666   0.785   2.060 -0.5152  0.0478 -0.1171
  144POPC   GL2 1537   2.599   1.093   2.173  0.0495 -0.0997 -0.0413
  144POPC   C1A 1538   3.029   0.767   2.306  0.0982 -0.0663  0.1575
  144POPC   D2A 1539   3.486   0.754   2.370  0.0838  0.0248  0.0056
  144POPC   C3A 1540   3.706   0.634   2.715 -0.2073 -0.0923 -0.0060
  144POPC   C4A 1541   3.656   0.284   2.983 -0.1496 -0.3279 -0.1310
  144POPC   C1B 1542   2.539   0.932   2.587  0.0258 -0.0271 -0.3359
  144POPC   C2B 1543   2.194   0.784   2.912  0.2260 -0.0989  0.1330
  144POPC   C3B 1544   1.910   0.968   3.226  0.0981 -0.1571 -0.1535
  144POPC   C4B 1545   1.700   0.944   3.625  0.1016 -0.1353  0.1758
  145POPC   NC3 1546   7.838   3.826   1.098 -0.3654 -0.1075 -0.1560
  145POPC   PO4 1547   7.739   3.941   1.423 -0.2409 -0.1517  0.1168
  145POPC   GL1 1548   7.993   3.959   1.744 -0.2347  0.0225  0.0340
  145POPC   GL2 1549   7.867   3.944   1.925  0.5300  0.2015 -0.0580
  145POPC   C1A 1550   8.349   3.864   1.995 -0.0188  0.3121 -0.0686
  145POPC   D2A 1551   8.417   3.578   2.379 -0.0664  0.1366 -0.1256
  145POPC   C3A 1552   8.106   3.386   2.654  0.2670  0.1819  0.2051
  145POPC   C4A 1553   7.966   3.335   3.135  0.1641  0.0137  0.1588
  145POPC   C1B 1554   7.933   3.791   2.334 -0.1398 -0.1597  0.2092
  145POPC   C2B 1555   8.153   3.831   2.779  0.2116 -0.0573 -0.0385
  145POPC   C3B 1556   8.240   3.873   3.196  0.2077  0.1366 -0.1020
  145POPC   C4B 1557   8.585   3.905   3.396  0.2060 -0.0554  0.1714
  146POPC   NC3 1558   2.676   5.295   2.075 -0.2327  0.1502  0.3058
  146POPC   PO4 1559   2.592   5.625   1.910 -0.0878 -0.1196  0.1575
  146POPC   GL1 1560   2.581   5.656   2.332 -0.1963  0.2992  0.1404
  146POPC   GL2 1561   2.275   5.611   2.302  0.1344 -0.2304  0.0370
  146POPC   C1A 1562   2.874   5.706   2.686 -0.1531  0.1225  0.0872
  146POPC   D2A 1563   2.894   5.858   3.134 -0.0562  0.1026  0.1477
  146POPC   C3A 1564   3.151   5.603   3.403  0.0139 -0.1819 -0.1050
  146POPC   C4A 1565   3.170   5.472   3.832 -0.0839  0.3560  0.1737
  146POPC   C1B 1566   1.962   5.916   2.489 -0.2883  0.3469 -0.0398
  146POPC   C2B 1567   1.613   6.071   2.741 -0.2089 -0.1555 -0.0137
  146POPC   C3B 1568   1.401   5.839   3.059 -0.0872 -0.0868 -0.1194
  146POPC   C4B 1569   1.279   5.512   3.343  0.1577  0.1583 -0.0799
  147POPC   NC3 1570   6.044   2.451   1.785  0.2234  0.1118  0.0899
  147POPC   PO4 1571   5.698   2.239   1.857 -0.1644  0.2532  0.1790
  147POPC   GL1 1572   5.891   2.113   2.225  0.2353  0.1877 -0.1460
  147POPC   GL2 1573   6.111   2.323   2.282  0.1469  0.2317 -0.2560
  147POPC   C1A 1574   5.947   1.767   2.572  0.0577 -0.0364  0.4788
  147POPC   D2A 1575   5.901   1.650   3.014  0.1503 -0.1542 -0.1194
  147POPC   C3A 1576   6.137   1.633   3.422 -0.0442  0.0333  0.0187
  147POPC   C4A 1577   5.997   1.678   3.818  0.2606  0.2612 -0.1280
  147POPC   C1B 1578   6.459   2.539   2.434  0.0275 -0.0847 -0.4690
  147POPC   C2B 1579   6.717   2.837   2.708 -0.0318  0.2786 -0.1298
  147POPC   C3B 1580   7.049   3.118   2.974 -0.1041 -0.0997  0.0804
  147POPC   C4B 1581   7.380   3.177   3.353  0.0073  0.0250  0.1145
  148POPC   NC3 1582   1.572   1.496   2.104  0.0225 -0.1437 -0.1557
  148POPC   PO4 1583   1.951   1.589   1.999 -0.0618 -0.1721 -0.0937
  148POPC   GL1 1584   1.819   1.879   2.047  0.0557 -0.0656  0.2365
  148POPC   GL2 1585   2.009   1.996   2.317  0.0311 -0.1236 -0.1944
  148POPC   C1A 1586   1.519   2.053   2.354  0.0654 -0.1743  0.0909
  148POPC   D2A 1587   1.259   1.967   2.742 -0.0952  0.4669 -0.2286
  148POPC   C3A 1588   1.382   1.772   3.108  0.0322  0.1189 -0.2554
  148POPC   C4A 1589   1.352   1.336   3.165 -0.1953  0.2164 -0.1299
  148POPC   C1B 1590   1.842   2.071   2.724  0.1649 -0.1428 -0.1125
  148POPC   C2B 1591   1.505   2.387   2.931  0.0246  0.2115 -0.0717
  148POPC   C3B 1592   1.412   2.631   3.287 -0.0515 -0.2241 -0.2649
  148POPC   C4B 1593   1.459   3.016   3.594 -0.1293  0.0610  0.1854
  149POPC   NC3 1594   2.312   9.042   1.827 -0.0594  0.4282  0.2614
  149POPC   PO4 1595   2.468   9.422   1.759 -0.0558  0.0639  0.1174
  149POPC   GL1 1596   2.576   9.382   2.087 -0.0732 -0.3836  0.3408
  149POPC   GL2 1597   2.677   9.211   2.206 -0.3134 -0.1766  0.3520
  149POPC   C1A 1598   2.418   9.621   2.453 -0.0174  0.0674  0.4120
  149POPC   D2A 1599   2.062   9.494   2.715  0.0306  0.2484  0.2267
  149POPC   C3A 1600   1.720   9.779   2.832  0.0064  0.1889 -0.0955
  149POPC   C4A 1601   1.332  10.029   2.786  0.2799  0.1498 -0.0908
  149POPC   C1B 1602   2.806   9.381   2.678  0.1908  0.4765 -0.0114
  149POPC   C2B 1603   2.819   9.742   2.956 -0.3516 -0.0728  0.1894
  149POPC   C3B 1604   2.688  10.200   3.089  0.4291  0.3836 -0.0036
  149POPC   C4B 1605   2.409  10.497   2.874 -0.1940  0.1637  0.2122
  150POPC   NC3 1606   5.444   8.866   1.865  0.1392 -0.0549  0.1586
  150POPC   PO4 1607   5.787   8.681   1.707  0.0110 -0.0648 -0.1478
  150POPC   GL1 1608   5.832   8.755   2.164  0.1805  0.0329  0.0739
  150POPC   GL2 1609   5.746   8.508   2.284 -0.0060 -0.3139 -0.1486
  150POPC   C1A 1610   5.870   8.976   2.576 -0.1563 -0.2332  0.0466
  150POPC   D2A 1611   6.117   9.291   2.806  0.0061  0.1321 -0.1363
  150POPC   C3A 1612   5.880   9.403   3.239  0.3028 -0.2584 -0.1897
  150POPC   C4A 1613   5.673   9.612   3.612  0.1680 -0.0231  0.1141
  150POPC   C1B 1614   6.078   8.503   2.577 -0.3753 -0.0687  0.3048
  150POPC   C2B 1615   6.039   8.470   2.986  0.0780  0.0584  0.0001
  150POPC   C3B 1616   6.023   8.079   3.238 -0.1295  0.3125  0.2191
  150POPC   C4B 1617   5.910   7.649   3.242  0.0982  0.0653 -0.0934
  151POPC   NC3 1618   2.987   2.683   1.378  0.2175  0.0145 -0.2614
  151POPC   PO4 1619   2.926   2.357   1.545  0.1490  0.1584  0.1050
  151POPC   GL1 1620   2.627   2.232   1.882  0.4499 -0.1572  0.1599
  151POPC   GL2 1621   2.626   2.553   1.918 -0.1036  0.0802 -0.2861
  151POPC   C1A 1622   2.393   2.305   2.271 -0.2402  0.3950  0.0703
  151POPC   D2A 1623   2.421   2.700   2.504  0.1908  0.0451  0.3554
  151POPC   C3A 1624   2.231   2.825   2.856  0.2886  0.2396  0.0097
  151POPC   C4A 1625   1.935   2.747   3.150 -0.3340  0.0155 -0.2339
  151POPC   C1B 1626   2.877   2.305   2.269 -0.1522  0.1727 -0.0533
  151POPC   C2B 1627   2.941   2.172   2.755 -0.2241  0.1070 -0.0947
  151POPC   C3B 1628   2.742   2.031   3.137  0.2666  0.0913  0.0262
  151POPC   C4B 1629   2.433   2.114   3.476 -0.1797 -0.0552 -0.0783
  152POPC   NC3 1630   8.916   8.732   2.071 -0.1853 -0.1671  0.1381
  152POPC   PO4 1631   8.803   8.512   1.746  0.3679 -0.0336 -0.1723
  152POPC   GL1 1632   8.598   8.363   2.175  0.1433 -0.1475  0.1455
  152POPC   GL2 1633   8.771   8.283   2.376 -0.1433 -0.1732  0.1612
  152POPC   C1A 1634   8.285   8.595   2.428 -0.4449  0.1523 -0.2433
  152POPC   D2A 1635   8.230   9.062   2.614 -0.2363 -0.1774  0.2513
  152POPC   C3A 1636   8.319   9.242   2.996  0.0453  0.0292 -0.0544
  152POPC   C4A 1637   8.404   9.166   3.472 -0.1436  0.1704  0.0883
  152POPC   C1B 1638   8.601   8.349   2.769  0.0656  0.0072  0.2849
  152POPC   C2B 1639   8.634   8.272   3.243 -0.0332  0.0423 -0.1279
  152POPC   C3B 1640   8.554   8.514   3.643 -0.2247 -0.0752 -0.0961
  152POPC   C4B 1641   8.636   8.856   3.845  0.1327 -0.4389  0.1021
  153POPC   NC3 1642   2.008   3.607   1.021  0.3554 -0.1872  0.1206
  153POPC   PO4 1643   2.297   3.390   1.181 -0.0201 -0.0189  0.0082
  153POPC   GL1 1644   2.316   3.499   1.650  0.2138 -0.2994  0.4135
  153POPC   GL2 1645   2.550   3.380   1.601  0.0525  0.0889  0.0906
  153POPC   C1A 1646   2.428   3.736   2.016  0.0297  0.0091 -0.0177
  153POPC   D2A 1647   2.240   3.919   2.395 -0.0577 -0.0425 -0.1755
  153POPC   C3A 1648   2.513   4.046   2.740 -0.1625 -0.1583 -0.0594
  153POPC   C4A 1649   2.857   4.296   2.887  0.0494  0.1554 -0.0024
  153POPC   C1B 1650   2.337   3.170   1.968  0.0542 -0.0774 -0.0554
  153POPC   C2B 1651   2.117   3.194   2.339 -0.1666 -0.1163  0.1812
  153POPC   C3B 1652   1.996   3.294   2.813  0.0173  0.2073  0.0481
  153POPC   C4B 1653   1.731   3.224   3.237 -0.1371 -0.1323 -0.1961
  154POPC   NC3 1654   0.905   6.991   1.582  0.0344 -0.0007 -0.0202
  154POPC   PO4 1655   1.274   7.035   1.585  0.0640 -0.1677  0.3451
  154POPC   GL1 1656   1.309   7.011   1.989 -0.3271 -0.4777  0.2815
  154POPC   GL2 1657   1.134   6.846   2.037 -0.2192 -0.1214 -0.0216
  154POPC   C1A 1658   1.341   7.329   2.379 -0.0715 -0.2475 -0.2478
  154POPC   D2A 1659   1.148   7.641   2.588 -0.2899 -0.2888 -0.1645
  154POPC   C3A 1660   0.964   7.790   2.977  0.1531  0.0248 -0.0945
  154POPC   C4A 1661   0.774   7.913   3.339  0.0403 -0.0126 -0.1422
  154POPC   C1B 1662   1.066   6.950   2.509  0.1069 -0.0996 -0.2298
  154POPC   C2B 1663   1.109   7.195   2.819 -0.0342 -0.1902 -0.1858
  154POPC   C3B 1664   1.147   7.333   3.283 -0.2554 -0.1292 -0.0550
  154POPC   C4B 1665   1.473   7.323   3.618 -0.1974 -0.1048  0.0835
  155POPC   NC3 1666   7.112   4.750   1.509  0.1077 -0.1594 -0.0757
  155POPC   PO4 1667   7.260   5.064   1.314  0.0346 -0.2042 -0.1502
  155POPC   GL1 1668   7.000   5.213   1.615  0.0000 -0.2772 -0.4219
  155POPC   GL2 1669   6.739   5.320   1.763 -0.2483  0.2580  0.1831
  155POPC   C1A 1670   7.025   4.984   2.045 -0.1131 -0.0023 -0.1907
  155POPC   D2A 1671   7.000   4.686   2.400 -0.1887  0.0583 -0.2566
  155POPC   C3A 1672   7.311   4.373   2.583  0.3091 -0.0437  0.1433
  155POPC   C4A 1673   7.785   4.357   2.627 -0.2051  0.0792 -0.2265
  155POPC   C1B 1674   6.809   5.488   2.190 -0.0050 -0.1486 -0.0644
  155POPC   C2B 1675   7.077   5.822   2.328 -0.3027 -0.4046 -0.4442
  155POPC   C3B 1676   7.234   6.061   2.712 -0.3004  0.1049  0.0712
  155POPC   C4B 1677   7.379   6.341   2.952  0.2764  0.0319  0.2206
  156POPC   NC3 1678   8.321   8.153   1.770  0.1049 -0.1413 -0.0849
  156POPC   PO4 1679   7.966   8.318   1.652 -0.0621  0.2348  0.0505
  156POPC   GL1 1680   7.944   8.157   2.022  0.0973 -0.0140 -0.0895
  156POPC   GL2 1681   7.672   8.067   2.037  0.1638  0.0493 -0.1763
  156POPC   C1A 1682   8.282   8.106   2.357  0.2852  0.1696  0.0802
  156POPC   D2A 1683   8.427   7.877   2.682  0.1887 -0.0904 -0.0699
  156POPC   C3A 1684   8.209   8.088   3.027 -0.0477 -0.0071  0.1268
  156POPC   C4A 1685   8.057   8.329   3.343  0.0500 -0.2048  0.1554
  156POPC   C1B 1686   7.756   7.815   2.400 -0.4453  0.2040  0.2049
  156POPC   C2B 1687   7.960   7.631   2.774  0.2136 -0.1870  0.2089
  156POPC   C3B 1688   8.081   7.536   3.199  0.1312 -0.1134 -0.0766
  156POPC   C4B 1689   8.209   7.436   3.616 -0.0605 -0.2132  0.1947
  157POPC   NC3 1690   5.342   6.422   2.240 -0.3952 -0.2227  0.1170
  157POPC   PO4 1691   5.034   6.465   2.029 -0.0865 -0.2431 -0.2100
  157POPC   GL1 1692   5.009   6.072   2.235 -0.4122 -0.0152 -0.2973
  157POPC   GL2 1693   5.292   5.957   2.246  0.0097  0.1245 -0.3620
  157POPC   C1A 1694   4.979   5.910   2.643 -0.2047  0.0361 -0.1606
  157POPC   D2A 1695   4.935   5.641   2.990  0.0613  0.0079 -0.1220
  157POPC   C3A 1696   5.186   5.635   3.410  0.0501 -0.1314 -0.2171
  157POPC   C4A 1697   5.632   5.638   3.465  0.0501 -0.0494 -0.1537
  157POPC   C1B 1698   5.637   5.839   2.559  0.1831  0.0934 -0.1980
  157POPC   C2B 1699   6.007   5.787   2.787 -0.2455  0.3609 -0.1677
  157POPC   C3B 1700   6.111   5.675   3.280  0.0875 -0.1016  0.2676
  157POPC   C4B 1701   5.965   5.261   3.557 -0.0544  0.3448  0.1134
  158POPC   NC3 1702   1.073   3.904   0.949  0.0280 -0.0007  0.0749
  158POPC   PO4 1703   0.904   4.085   1.232 -0.1026  0.1321  0.2762
  158POPC   GL1 1704   0.706   4.070   1.585 -0.0802 -0.3393  0.0851
  158POPC   GL2 1705   0.668   4.400   1.508 -0.0825 -0.0053 -0.0348
  158POPC   C1A 1706   0.703   3.822   2.008 -0.2446 -0.1565  0.2176
  158POPC   D2A 1707   0.924   3.722   2.417  0.2823 -0.0323  0.3316
  158POPC   C3A 1708   0.895   3.376   2.765 -0.0958  0.1803  0.3848
  158POPC   C4A 1709   0.874   3.398   3.242 -0.1216 -0.1253 -0.1225
  158POPC   C1B 1710   0.632   4.429   1.950 -0.0275  0.1365  0.1846
  158POPC   C2B 1711   0.544   4.348   2.409 -0.0453  0.1875 -0.2874
  158POPC   C3B 1712   0.628   4.021   2.665 -0.2173  0.0448  0.0437
  158POPC   C4B 1713   0.479   3.818   3.108 -0.0142 -0.2659 -0.2825
  159POPC   NC3 1714   3.001   1.040   1.889 -0.0980 -0.0812 -0.2400
  159POPC   PO4 1715   3.387   1.112   1.864 -0.0433  0.3289 -0.0795
  159POPC   GL1 1716   3.362   1.278   2.219 -0.0695 -0.5452  0.1463
  159POPC   GL2 1717   3.098   1.271   2.305 -0.0913  0.4086  0.3841
  159POPC   C1A 1718   3.453   1.346   2.689 -0.1604  0.1755 -0.2894
  159POPC   D2A 1719   3.352   1.340   3.132  0.0454  0.1667  0.0772
  159POPC   C3A 1720   3.664   1.429   3.391 -0.1430 -0.0739  0.1460
  159POPC   C4A 1721   4.054   1.326   3.439  0.1344 -0.0502  0.2709
  159POPC   C1B 1722   3.045   1.077   2.732 -0.0741 -0.3218  0.1331
  159POPC   C2B 1723   3.138   0.930   3.189  0.1746  0.0811  0.2079
  159POPC   C3B 1724   2.880   0.648   3.427 -0.3743 -0.0472 -0.1270
  159POPC   C4B 1725   2.413   0.703   3.375  0.0372  0.1276  0.0237
  160POPC   NC3 1726   2.941   8.067   1.856 -0.1469 -0.2747  0.0682
  160POPC   PO4 1727   2.562   8.112   1.679 -0.2084 -0.1604 -0.0204
  160POPC   GL1 1728   2.465   8.200   2.031  0.2673  0.0725 -0.0538
  160POPC   GL2 1729   2.554   7.975   2.162 -0.0657  0.1922 -0.5295
  160POPC   C1A 1730   2.600   8.311   2.483 -0.2904 -0.2533  0.2808
  160POPC   D2A 1731   2.503   8.594   2.838  0.0062  0.1366 -0.5354
  160POPC   C3A 1732   2.420   9.118   2.759  0.0298  0.0533  0.0378
  160POPC   C4A 1733   2.366   9.408   3.115  0.2974  0.1017  0.0778
  160POPC   C1B 1734   2.753   7.814   2.525 -0.3392 -0.0807 -0.0108
  160POPC   C2B 1735   2.721   8.012   2.917 -0.0646  0.1529 -0.2796
  160POPC   C3B 1736   2.568   8.046   3.332  0.1824  0.1115 -0.1568
  160POPC   C4B 1737   2.502   8.346   3.649 -0.1312 -0.0657  0.1618
  161POPC   NC3 1738   5.366   1.333   1.841 -0.1256  0.0802  0.1252
  161POPC   PO4 1739   5.710   1.418   1.899  0.0685 -0.0455 -0.1342
  161POPC   GL1 1740   5.874   1.401   2.252 -0.2563 -0.4172  0.1261
  161POPC   GL2 1741   6.152   1.414   2.253 -0.0683  0.0358 -0.0169
  161POPC   C1A 1742   5.586   1.402   2.668 -0.0342 -0.0219 -0.1332
  161POPC   D2A 1743   5.288   1.748   2.761 -0.0159 -0.1109 -0.1204
  161POPC   C3A 1744   5.298   2.079   3.121 -0.0762 -0.0821 -0.0761
  161POPC   C4A 1745   5.241   2.333   3.516  0.3255 -0.0547  0.2530
  161POPC   C1B 1746   6.181   1.310   2.692 -0.0575 -0.1937 -0.0689
  161POPC   C2B 1747   5.881   1.186   3.002  0.1793 -0.1123  0.2234
  161POPC   C3B 1748   5.991   1.117   3.446 -0.1012  0.0936  0.2222
  161POPC   C4B 1749   6.033   1.173   3.919  0.1589  0.1208  0.0769
  162POPC   NC3 1750   4.287   8.115   1.513 -0.1209 -0.1546 -0.2140
  162POPC   PO4 1751   4.226   7.779   1.679 -0.1992  0.1721 -0.1254
  162POPC   GL1 1752   4.284   7.671   2.088 -0.1996  0.0027  0.1813
  162POPC   GL2 1753   3.993   7.757   2.174  0.0051 -0.3100 -0.2507
  162POPC   C1A 1754   4.116   7.421   2.500  0.0137 -0.0045 -0.1315
  162POPC   D2A 1755   3.838   7.142   2.726  0.1521 -0.0750  0.0145
  162POPC   C3A 1756   4.057   6.940   3.034  0.0574 -0.0370  0.1111
  162POPC   C4A 1757   4.115   6.752   3.458  0.1743 -0.0368  0.0465
  162POPC   C1B 1758   4.086   7.924   2.558  0.1024  0.0573  0.0063
  162POPC   C2B 1759   3.919   8.008   3.014  0.0925  0.0018 -0.0724
  162POPC   C3B 1760   3.739   8.091   3.434  0.2167 -0.2329 -0.1518
  162POPC   C4B 1761   3.622   7.954   3.807 -0.0427  0.2942 -0.1895
  163POPC   NC3 1762   0.100   2.720   1.073  0.2676 -0.2448  0.1443
  163POPC   PO4 1763   0.024   2.981   1.313 -0.0598 -0.2065 -0.0834
  163POPC   GL1 1764  -0.090   2.707   1.554  0.1098  0.1185 -0.0449
  163POPC   GL2 1765  -0.092   2.462   1.504  0.1901 -0.0333 -0.0887
  163POPC   C1A 1766  -0.381   2.606   1.958  0.3178  0.1452  0.2102
  163POPC   D2A 1767  -0.604   2.394   2.255 -0.1716  0.0296  0.0827
  163POPC   C3A 1768  -0.741   2.663   2.640 -0.3818 -0.0438  0.3097
  163POPC   C4A 1769  -0.979   2.945   2.921 -0.3200 -0.1158 -0.0510
  163POPC   C1B 1770  -0.232   2.149   1.800 -0.0593 -0.0954 -0.1470
  163POPC   C2B 1771  -0.130   2.059   2.225  0.1443  0.0710  0.2955
  163POPC   C3B 1772  -0.112   1.909   2.681 -0.0556 -0.1517  0.2430
  163POPC   C4B 1773  -0.012   1.669   3.055  0.0835  0.2349  0.1904
  164POPC   NC3 1774   0.492   0.559   1.675 -0.0137 -0.1819  0.1428
  164POPC   PO4 1775   0.103   0.435   1.686 -0.1043 -0.1519 -0.0339
  164POPC   GL1 1776   0.139   0.478   2.090  0.0658 -0.0587 -0.2898
  164POPC   GL2 1777  -0.154   0.451   2.184 -0.4510 -0.0454 -0.1158
  164POPC   C1A 1778   0.262   0.727   2.497  0.0238 -0.0004  0.0569
  164POPC   D2A 1779   0.471   0.790   2.915  0.2958 -0.0098  0.2120
  164POPC   C3A 1780   0.751   1.142   2.887  0.0817 -0.0257 -0.0770
  164POPC   C4A 1781   1.003   1.554   2.811 -0.0563 -0.2464  0.2039
  164POPC   C1B 1782  -0.473   0.444   2.521  0.0359 -0.1529  0.1003
  164POPC   C2B 1783  -0.689   0.525   2.870 -0.4350 -0.1908 -0.1002
  164POPC   C3B 1784  -0.988   0.694   3.176 -0.0173  0.0032  0.0240
  164POPC   C4B 1785  -1.071   0.954   3.550  0.0396  0.0812 -0.3646
  165POPC   NC3 1786   3.422   0.612   1.907 -0.0360 -0.0030 -0.0172
  165POPC   PO4 1787   3.391   0.294   1.721 -0.1349  0.2212 -0.0654
  165POPC   GL1 1788   3.583   0.034   2.062 -0.0905 -0.1145  0.1204
  165POPC   GL2 1789   3.559  -0.216   1.825  0.0951  0.3192 -0.1840
  165POPC   C1A 1790   3.685   0.155   2.450  0.0970 -0.1835 -0.0627
  165POPC   D2A 1791   4.030   0.213   2.695 -0.3294 -0.3022 -0.0588
  165POPC   C3A 1792   4.043  -0.096   3.057 -0.2166 -0.0295 -0.1256
  165POPC   C4A 1793   4.392  -0.428   3.050  0.1601  0.1856  0.0390
  165POPC   C1B 1794   3.675  -0.458   2.245 -0.0458 -0.0465  0.1357
  165POPC   C2B 1795   3.776  -0.851   2.430 -0.2570  0.3330 -0.1569
  165POPC   C3B 1796   3.441  -1.005   2.710 -0.0093 -0.2046  0.0529
  165POPC   C4B 1797   3.233  -1.201   3.065 -0.1018  0.2941  0.0480
  166POPC   NC3 1798   5.809   5.492   1.664 -0.0664  0.1258  0.3546
  166POPC   PO4 1799   5.693   5.812   1.892  0.0564  0.1934 -0.2460
  166POPC   GL1 1800   5.697   5.450   2.157  0.0521  0.1201  0.0327
  166POPC   GL2 1801   5.446   5.302   2.016  0.0212 -0.0973 -0.0642
  166POPC   C1A 1802   5.805   5.369   2.604 -0.3974 -0.0704 -0.1445
  166POPC   D2A 1803   5.893   5.303   3.066  0.0184 -0.0929  0.0554
  166POPC   C3A 1804   5.525   5.151   3.261  0.0450 -0.1335 -0.3552
  166POPC   C4A 1805   5.063   5.218   3.328 -0.1145  0.1551  0.0399
  166POPC   C1B 1806   5.551   4.965   2.400 -0.1812 -0.1299  0.1015
  166POPC   C2B 1807   5.763   4.923   2.831  0.1440 -0.2465  0.0223
  166POPC   C3B 1808   5.879   4.809   3.221  0.1102  0.1214 -0.4521
  166POPC   C4B 1809   5.726   4.809   3.646  0.1114 -0.1917  0.0771
  167POPC   NC3 1810   6.060   3.658   1.394  0.0968  0.4801 -0.0546
  167POPC   PO4 1811   6.442   3.637   1.258  0.4323  0.2324  0.1822
  167POPC   GL1 1812   6.458   3.574   1.684  0.3341  0.0698 -0.1900
  167POPC   GL2 1813   6.589   3.824   1.872 -0.0120  0.0782 -0.3234
  167POPC   C1A 1814   6.772   3.334   1.942  0.0914  0.0443 -0.1521
  167POPC   D2A 1815   7.056   3.555   2.147  0.1103 -0.3190 -0.1313
  167POPC   C3A 1816   7.151   3.428   2.577 -0.0086 -0.0941  0.2440
  167POPC   C4A 1817   7.215   3.635   2.958 -0.2590 -0.2555 -0.1945
  167POPC   C1B 1818   6.621   3.836   2.326  0.1124 -0.0216  0.0368
  167POPC   C2B 1819   7.000   3.935   2.668 -0.2449  0.1827 -0.1465
  167POPC   C3B 1820   7.272   4.100   2.979 -0.2997 -0.1722  0.3367
  167POPC   C4B 1821   7.548   4.504   3.061 -0.2887  0.0382  0.2761
  168POPC   NC3 1822   3.587   2.583   1.794  0.0846 -0.0998  0.1877
  168POPC   PO4 1823   3.713   2.892   2.000 -0.1512 -0.2276 -0.1123
  168POPC   GL1 1824   3.610   2.496   2.222 -0.2795 -0.2419  0.2726
  168POPC   GL2 1825   3.615   2.653   2.474 -0.2118  0.1000 -0.1750
  168POPC   C1A 1826   3.358   2.203   2.419  0.1705  0.1857  0.2029
  168POPC   D2A 1827   3.369   1.877   2.706  0.0785  0.4414  0.3203
  168POPC   C3A 1828   3.223   1.919   3.181 -0.0700 -0.0369  0.0366
  168POPC   C4A 1829   3.337   1.766   3.623 -0.0180  0.0097  0.1943
  168POPC   C1B 1830   3.514   2.855   2.867 -0.1653  0.1704  0.1180
  168POPC   C2B 1831   3.701   2.667   3.247  0.1608  0.1429 -0.0292
  168POPC   C3B 1832   4.153   2.650   3.420 -0.0722 -0.5069 -0.0101
  168POPC   C4B 1833   4.549   2.836   3.257  0.4387 -0.1004  0.3054
  169POPC   NC3 1834   8.522   7.561   0.898 -0.2032 -0.2844 -0.0102
  169POPC   PO4 1835   8.540   7.692   1.289  0.0354 -0.1893  0.0963
  169POPC   GL1 1836   8.536   7.759   1.717  0.2428  0.1263  0.0540
  169POPC   GL2 1837   8.384   7.550   1.865  0.0023 -0.1000 -0.0179
  169POPC   C1A 1838   8.772   7.846   2.069  0.0861 -0.0373  0.0772
  169POPC   D2A 1839   8.872   7.745   2.478  0.1451  0.0942 -0.2092
  169POPC   C3A 1840   8.712   7.594   2.928 -0.0268  0.0013 -0.0424
  169POPC   C4A 1841   8.599   7.616   3.365 -0.0405 -0.0652 -0.3754
  169POPC   C1B 1842   8.359   7.534   2.311  0.2044 -0.0899 -0.0249
  169POPC   C2B 1843   8.256   7.155   2.632 -0.0844  0.1436 -0.2170
  169POPC   C3B 1844   8.552   7.070   2.927  0.3075 -0.0261  0.2325
  169POPC   C4B 1845   8.878   7.209   3.173 -0.1876 -0.1258 -0.2268
  170POPC   NC3 1846   6.609   8.545   1.529 -0.1837  0.0117  0.0379
  170POPC   PO4 1847   6.643   8.255   1.784 -0.0787 -0.0565  0.1053
  170POPC   GL1 1848   6.591   8.444   2.147  0.0649  0.3260 -0.0677
  170POPC   GL2 1849   6.844   8.242   2.242  0.0449  0.2913 -0.2809
  170POPC   C1A 1850   6.718   8.630   2.567  0.2804  0.1388  0.0559
  170POPC   D2A 1851   6.925   8.770   2.917 -0.2958  0.3621  0.1477
  170POPC   C3A 1852   6.759   8.855   3.355 -0.3072 -0.1687 -0.2019
  170POPC   C4A 1853   6.726   9.080   3.745 -0.2839 -0.0842 -0.0057
  170POPC   C1B 1854   6.905   7.763   2.373  0.3506 -0.0347  0.0172
  170POPC   C2B 1855   6.572   7.546   2.600 -0.0687  0.0436 -0.1361
  170POPC   C3B 1856   6.120   7.333   2.681  0.2373 -0.0462 -0.0045
  170POPC   C4B 1857   5.969   7.169   3.118  0.1501  0.2567  0.2928
  171POPC   NC3 1858   6.668   0.412   1.443 -0.2781  0.3605 -0.0141
  171POPC   PO4 1859   6.658   0.063   1.597 -0.0347  0.3513  0.1048
  171POPC   GL1 1860   6.548   0.126   2.011 -0.0962  0.1512 -0.0297
  171POPC   GL2 1861   6.702   0.147   2.179  0.0304  0.0051  0.0960
  171POPC   C1A 1862   6.340  -0.158   2.350  0.2004 -0.2162  0.1375
  171POPC   D2A 1863   6.347  -0.302   2.811 -0.3102  0.1872  0.0377
  171POPC   C3A 1864   6.217  -0.113   3.239 -0.2542 -0.2012  0.3528
  171POPC   C4A 1865   6.314   0.166   3.586 -0.2342 -0.2059  0.1769
  171POPC   C1B 1866   6.771  -0.043   2.576  0.0391  0.1380  0.2302
  171POPC   C2B 1867   6.646   0.100   3.017  0.0030 -0.3034  0.3635
  171POPC   C3B 1868   6.899   0.227   3.382 -0.0115  0.0403  0.0080
  171POPC   C4B 1869   7.105   0.226   3.822  0.1803 -0.2804  0.5524
  172POPC   NC3 1870   5.823   4.933   1.452  0.4043  0.3772 -0.3753
  172POPC   PO4 1871   6.178   5.064   1.464 -0.2551  0.1080 -0.0602
  172POPC   GL1 1872   6.301   5.080   1.899 -0.0055 -0.2924  0.0827
  172POPC   GL2 1873   6.000   5.088   2.022 -0.0860 -0.1924 -0.2365
  172POPC   C1A 1874   6.526   4.782   2.159 -0.1893 -0.0302  0.2831
  172POPC   D2A 1875   6.553   4.835   2.568  0.0462 -0.0353 -0.0095
  172POPC   C3A 1876   6.902   5.037   2.799  0.0881 -0.2071 -0.0635
  172POPC   C4A 1877   7.116   4.666   2.906  0.1188 -0.0841 -0.0949
  172POPC   C1B 1878   6.165   5.055   2.439 -0.1168  0.2702 -0.0410
  172POPC   C2B 1879   6.270   5.189   2.840 -0.1650 -0.0215  0.0198
  172POPC   C3B 1880   6.481   5.297   3.193  0.1816  0.3439 -0.1293
  172POPC   C4B 1881   6.439   5.467   3.663 -0.2047 -0.0041  0.0296
  173POPC   NC3 1882   4.022   2.364   2.001 -0.0816  0.1265 -0.0273
  173POPC   PO4 1883   4.219   2.057   1.803 -0.0874 -0.2011 -0.0908
  173POPC   GL1 1884   4.240   2.023   2.168  0.0752  0.4603 -0.0767
  173POPC   GL2 1885   4.406   1.918   2.349 -0.0007  0.3181  0.0370
  173POPC   C1A 1886   3.832   2.094   2.440  0.1199 -0.0300 -0.0145
  173POPC   D2A 1887   3.748   2.251   2.829 -0.0267  0.0275 -0.2853
  173POPC   C3A 1888   3.323   2.357   3.038  0.2683  0.2241 -0.4330
  173POPC   C4A 1889   2.991   2.461   3.307 -0.2233 -0.0150 -0.1904
  173POPC   C1B 1890   4.669   1.890   2.752  0.2243  0.0327  0.1718
  173POPC   C2B 1891   4.795   2.032   3.154 -0.1615  0.1351  0.0628
  173POPC   C3B 1892   4.777   1.963   3.653  0.2091 -0.0589 -0.0001
  173POPC   C4B 1893   4.747   1.520   3.868  0.1197 -0.1298 -0.1790
  174POPC   NC3 1894   7.616   4.688   1.263 -0.3978  0.0285 -0.0670
  174POPC   PO4 1895   7.795   4.354   1.117 -0.0258  0.1535 -0.2208
  174POPC   GL1 1896   7.893   4.402   1.515 -0.2409  0.0136 -0.0144
  174POPC   GL2 1897   7.735   4.451   1.700 -0.2503  0.1974 -0.0336
  174POPC   C1A 1898   8.257   4.331   1.811 -0.1324  0.1416 -0.1950
  174POPC   D2A 1899   8.679   4.283   2.040  0.4457  0.0841  0.0379
  174POPC   C3A 1900   8.607   4.085   2.463  0.1754 -0.3601 -0.2933
  174POPC   C4A 1901   8.716   3.775   2.828 -0.2154  0.0206  0.0210
  174POPC   C1B 1902   7.849   4.375   2.119  0.1189  0.0665 -0.1392
  174POPC   C2B 1903   8.162   4.232   2.363  0.0114  0.3527  0.1658
  174POPC   C3B 1904   8.243   4.292   2.830  0.0468 -0.0456 -0.1304
  174POPC   C4B 1905   8.074   4.378   3.225 -0.2382 -0.0466  0.0344
  175POPC   NC3 1906   5.170   2.155   1.651  0.0596  0.0148 -0.1608
  175POPC   PO4 1907   5.015   2.526   1.598 -0.0854 -0.2521 -0.3096
  175POPC   GL1 1908   5.070   2.562   1.983 -0.2028 -0.2457 -0.3867
  175POPC   GL2 1909   5.328   2.549   2.051  0.0368  0.0308  0.0523
  175POPC   C1A 1910   4.790   2.759   2.328 -0.0818 -0.0858 -0.0506
  175POPC   D2A 1911   4.548   2.783   2.732  0.2322 -0.1081  0.0880
  175POPC   C3A 1912   4.410   2.405   2.962 -0.0572  0.2590  0.0085
  175POPC   C4A 1913   4.178   2.032   2.880  0.0544  0.2113 -0.3149
  175POPC   C1B 1914   5.296   2.661   2.458 -0.2044 -0.1067 -0.2561
  175POPC   C2B 1915   5.404   2.561   2.940 -0.0495 -0.1320  0.1911
  175POPC   C3B 1916   5.666   2.392   3.271 -0.0494 -0.0843  0.1617
  175POPC   C4B 1917   5.745   1.975   3.488  0.0240 -0.0667  0.1171
  176POPC   NC3 1918   8.628   4.296   1.059  0.2120 -0.0992  0.2496
  176POPC   PO4 1919   8.941   4.283   1.262 -0.0475 -0.2539 -0.2271
  176POPC   GL1 1920   8.873   4.471   1.580  0.3151  0.3254  0.1266
  176POPC   GL2 1921   8.618   4.623   1.459 -0.1026  0.2685 -0.3901
  176POPC   C1A 1922   8.914   4.822   1.806 -0.2134 -0.1779  0.1978
  176POPC   D2A 1923   8.952   5.077   2.218  0.0988 -0.0540 -0.0751
  176POPC   C3A 1924   8.858   5.405   2.539 -0.1172 -0.1642  0.0470
  176POPC   C4A 1925   8.520   5.567   2.759  0.0811 -0.0482 -0.2671
  176POPC   C1B 1926   8.419   4.799   1.851  0.0024 -0.1959 -0.0040
  176POPC   C2B 1927   8.591   4.763   2.268  0.1398  0.0185 -0.0530
  176POPC   C3B 1928   8.891   4.756   2.599 -0.0799  0.0431 -0.1494
  176POPC   C4B 1929   8.931   4.691   3.069 -0.1275  0.0971  0.1012
  177POPC   NC3 1930   5.871   0.557   1.861 -0.0225  0.0492  0.0009
  177POPC   PO4 1931   5.499   0.537   1.760 -0.0830 -0.0206  0.0385
  177POPC   GL1 1932   5.500   0.744   2.075 -0.2251 -0.4630 -0.3530
  177POPC   GL2 1933   5.625   0.946   2.084 -0.0329 -0.3090  0.0987
  177POPC   C1A 1934   5.405   0.820   2.551 -0.2018  0.0964 -0.0154
  177POPC   D2A 1935   5.099   1.043   2.859  0.0989 -0.0280 -0.1763
  177POPC   C3A 1936   5.378   1.215   3.218 -0.1575  0.1268 -0.2830
  177POPC   C4A 1937   5.658   1.472   3.489 -0.1843 -0.1622  0.0686
  177POPC   C1B 1938   5.947   0.909   2.439 -0.0053 -0.1157  0.1209
  177POPC   C2B 1939   6.171   0.696   2.772 -0.0615  0.1674  0.1958
  177POPC   C3B 1940   6.211   0.682   3.219  0.1899 -0.3210  0.3919
  177POPC   C4B 1941   6.234   0.717   3.695  0.3345 -0.0192  0.0887
  178POPC   NC3 1942   2.259   7.156   1.630  0.4959  0.2237  0.0231
  178POPC   PO4 1943   2.192   6.787   1.441  0.0812  0.3490  0.0392
  178POPC   GL1 1944   2.123   6.749   1.819  0.1673  0.3188  0.0385
  178POPC   GL2 1945   2.166   6.548   1.937  0.0978 -0.0100 -0.0220
  178POPC   C1A 1946   2.262   6.919   2.212 -0.1559  0.0963 -0.0079
  178POPC   D2A 1947   2.288   7.218   2.571 -0.0247 -0.0383 -0.0037
  178POPC   C3A 1948   1.842   7.304   2.595  0.1663  0.2525 -0.0101
  178POPC   C4A 1949   1.522   7.495   2.877  0.2231 -0.0900  0.3732
  178POPC   C1B 1950   2.390   6.480   2.404 -0.1459  0.2040 -0.0347
  178POPC   C2B 1951   2.273   6.289   2.817  0.2077  0.4664  0.1363
  178POPC   C3B 1952   2.437   6.092   3.244  0.2051 -0.4739 -0.0537
  178POPC   C4B 1953   2.290   5.664   3.446 -0.0281 -0.0295 -0.2536
  179POPC   NC3 1954   9.135   3.502   1.083  0.2043 -0.0909  0.1607
  179POPC   PO4 1955   9.050   3.805   1.375 -0.2112  0.0240 -0.1772
  179POPC   GL1 1956   8.943   3.648   1.692 -0.1672 -0.2030  0.0733
  179POPC   GL2 1957   9.032   3.364   1.683  0.4464 -0.0187 -0.2252
  179POPC   C1A 1958   8.871   3.719   2.131  0.2579  0.1985 -0.2560
  179POPC   D2A 1959   8.942   3.457   2.502 -0.0260  0.2249 -0.0114
  179POPC   C3A 1960   9.317   3.200   2.608  0.0149  0.0715 -0.0225
  179POPC   C4A 1961   9.458   2.740   2.615 -0.4058  0.2527 -0.0963
  179POPC   C1B 1962   9.109   3.113   2.048 -0.2958 -0.0024 -0.3247
  179POPC   C2B 1963   9.093   2.748   2.310 -0.0151 -0.1717  0.2417
  179POPC   C3B 1964   9.051   2.377   2.651 -0.3613  0.2313  0.1987
  179POPC   C4B 1965   8.665   2.190   2.834  0.0082  0.1912  0.1374
  180POPC   NC3 1966   5.269   3.798   1.762  0.0263  0.1282 -0.2900
  180POPC   PO4 1967   5.582   3.917   1.572  0.0026  0.3489 -0.3345
  180POPC   GL1 1968   5.772   3.705   1.782 -0.0629  0.1118 -0.0040
  180POPC   GL2 1969   6.067   3.915   1.813  0.2518 -0.1006 -0.4449
  180POPC   C1A 1970   5.615   3.760   2.216  0.0021  0.3297  0.1762
  180POPC   D2A 1971   5.513   3.728   2.661 -0.1399 -0.3381  0.4042
  180POPC   C3A 1972   5.586   3.799   3.103 -0.0888  0.0575 -0.1280
  180POPC   C4A 1973   5.513   3.879   3.587  0.3924 -0.2287 -0.3225
  180POPC   C1B 1974   6.086   3.512   2.036  0.2512 -0.1955 -0.0048
  180POPC   C2B 1975   6.130   3.412   2.474  0.0680  0.0780 -0.0071
  180POPC   C3B 1976   5.842   3.436   2.807 -0.0384 -0.1130 -0.0427
  180POPC   C4B 1977   5.621   3.295   3.177 -0.2110  0.0621  0.2015
  181POPC   NC3 1978   3.090   3.508   1.490  0.2472  0.0150  0.0902
  181POPC   PO4 1979   3.261   3.790   1.714  0.1997  0.0391 -0.1611
  181POPC   GL1 1980   3.224   3.622   2.057  0.1997  0.1620 -0.0729
  181POPC   GL2 1981   2.928   3.515   2.017  0.0346 -0.0872  0.0408
  181POPC   C1A 1982   3.238   3.542   2.484 -0.3576  0.1381 -0.3344
  181POPC   D2A 1983   3.231   3.289   2.825 -0.3001 -0.3272  0.1193
  181POPC   C3A 1984   2.900   3.471   3.161  0.2426  0.2177  0.1767
  181POPC   C4A 1985   2.530   3.725   3.294 -0.2323 -0.0506  0.1514
  181POPC   C1B 1986   2.700   3.569   2.404 -0.0475  0.0291 -0.1667
  181POPC   C2B 1987   2.534   3.534   2.855 -0.2776  0.2679  0.2983
  181POPC   C3B 1988   2.408   3.230   3.122  0.1218  0.0092  0.1861
  181POPC   C4B 1989   2.655   3.134   3.415  0.1131  0.0889 -0.2357
  182POPC   NC3 1990   3.089   6.755   1.575 -0.0077 -0.1138 -0.0458
  182POPC   PO4 1991   2.931   6.379   1.662 -0.0831 -0.2100  0.3838
  182POPC   GL1 1992   2.890   6.514   2.036 -0.0580 -0.0293  0.1535
  182POPC   GL2 1993   2.981   6.796   2.057 -0.1037  0.2700  0.1455
  182POPC   C1A 1994   2.865   6.239   2.410  0.1263  0.1063  0.1668
  182POPC   D2A 1995   2.761   6.223   2.830 -0.1308  0.0009 -0.0501
  182POPC   C3A 1996   2.633   6.638   2.857  0.0344 -0.0397 -0.3399
  182POPC   C4A 1997   2.570   6.934   3.202  0.3245 -0.0597  0.1150
  182POPC   C1B 1998   2.867   6.899   2.470 -0.1361 -0.0388 -0.3339
  182POPC   C2B 1999   2.898   7.066   2.909 -0.1592 -0.1945 -0.0519
  182POPC   C3B 2000   3.057   7.165   3.364 -0.1719  0.1737  0.1340
  182POPC   C4B 2001   2.706   7.139   3.636 -0.0306  0.0340  0.0659
  183POPC   NC3 2002   5.949   4.120   1.266  0.0154  0.1155  0.1542
  183POPC   PO4 2003   5.838   4.344   1.538  0.1274 -0.1287 -0.1514
  183POPC   GL1 2004   5.833   4.340   1.963 -0.0099 -0.4265 -0.1831
  183POPC   GL2 2005   5.517   4.265   1.952 -0.2956 -0.1504 -0.0497
  183POPC   C1A 2006   6.055   4.600   2.253  0.0096 -0.0120  0.0394
  183POPC   D2A 2007   6.158   4.576   2.674 -0.1458 -0.0527  0.1733
  183POPC   C3A 2008   6.337   4.739   3.024  0.0364 -0.0689  0.2528
  183POPC   C4A 2009   6.691   4.810   3.238 -0.0104  0.4759 -0.0094
  183POPC   C1B 2010   5.703   4.262   2.403  0.0220 -0.1073  0.0104
  183POPC   C2B 2011   5.844   4.253   2.854  0.2206 -0.0642 -0.0277
  183POPC   C3B 2012   6.136   4.330   3.250 -0.1401 -0.1738 -0.0084
  183POPC   C4B 2013   6.571   4.225   3.559  0.2056 -0.0195  0.0144
  184POPC   NC3 2014   4.561   5.831   2.314  0.1599  0.0953 -0.0911
  184POPC   PO4 2015   4.515   6.144   2.059 -0.2058 -0.2232 -0.1765
  184POPC   GL1 2016   4.732   6.396   2.383 -0.4315  0.0420  0.0789
  184POPC   GL2 2017   4.635   6.234   2.605  0.3475 -0.0579 -0.0363
  184POPC   C1A 2018   5.038   6.523   2.731 -0.1186 -0.0297 -0.2187
  184POPC   D2A 2019   5.145   6.526   3.254  0.2359  0.0965 -0.0694
  184POPC   C3A 2020   5.501   6.478   3.496 -0.0844 -0.1582 -0.0810
  184POPC   C4A 2021   5.689   6.548   3.914 -0.0536  0.2094  0.1497
  184POPC   C1B 2022   4.782   6.233   3.060 -0.2904 -0.1361  0.3949
  184POPC   C2B 2023   4.694   5.876   3.343 -0.0018 -0.0366  0.0042
  184POPC   C3B 2024   4.685   5.454   3.527 -0.0002  0.0510 -0.0930
  184POPC   C4B 2025   4.609   5.217   3.839 -0.3820 -0.0147 -0.0492
  185POPC   NC3 2026   1.561   5.380   0.400 -0.1126 -0.0980  0.0795
  185POPC   PO4 2027   1.690   5.088   0.663  0.0893  0.2332  0.1317
  185POPC   GL1 2028   1.473   4.973   1.038 -0.4376  0.3596 -0.1126
  185POPC   GL2 2029   1.495   5.052   1.305 -0.0727 -0.2515  0.0992
  185POPC   C1A 2030   1.072   4.757   1.276 -0.2175  0.4413 -0.0852
  185POPC   D2A 2031   0.804   4.905   1.578  0.0378  0.1370 -0.0762
  185POPC   C3A 2032   1.152   5.191   1.677 -0.0903  0.2797  0.0091
  185POPC   C4A 2033   1.606   5.255   1.811 -0.0468 -0.1582  0.0510
  185POPC   C1B 2034   1.373   4.731   1.663 -0.2478 -0.1178  0.0650
  185POPC   C2B 2035   1.050   4.758   2.022 -0.0312  0.1768  0.2227
  185POPC   C3B 2036   0.830   4.825   2.415 -0.0008 -0.1447 -0.0807
  185POPC   C4B 2037   0.632   5.064   2.768 -0.0558  0.1615 -0.1365
  186POPC   NC3 2038   8.240   3.157   1.316  0.0138 -0.1169 -0.1878
  186POPC   PO4 2039   8.219   3.449   1.065  0.1708 -0.1840  0.0323
  186POPC   GL1 2040   8.256   3.596   1.424 -0.1981 -0.3338  0.2314
  186POPC   GL2 2041   8.521   3.507   1.609  0.0459 -0.2405 -0.0101
  186POPC   C1A 2042   8.061   3.439   1.792 -0.1434 -0.0966 -0.1679
  186POPC   D2A 2043   7.665   3.458   2.008 -0.1907 -0.2589  0.1983
  186POPC   C3A 2044   7.669   3.370   2.445 -0.2190 -0.1469 -0.0550
  186POPC   C4A 2045   7.538   3.240   2.878  0.1468  0.3710  0.1948
  186POPC   C1B 2046   8.608   3.282   1.997  0.2222  0.2173  0.0993
  186POPC   C2B 2047   8.604   2.984   2.360 -0.0597 -0.2008  0.3790
  186POPC   C3B 2048   8.900   2.954   2.746 -0.1805  0.2958 -0.1025
  186POPC   C4B 2049   8.832   2.748   3.155  0.4916  0.1180 -0.1794
  187POPC   NC3 2050   6.841   3.410   1.373 -0.0666  0.1595 -0.0415
  187POPC   PO4 2051   6.928   3.816   1.514 -0.1982  0.2155  0.1772
  187POPC   GL1 2052   7.091   4.026   1.809  0.2528  0.0616  0.1455
  187POPC   GL2 2053   7.356   3.851   1.787 -0.2341 -0.1526  0.1764
  187POPC   C1A 2054   7.323   4.409   2.003 -0.0499 -0.3462 -0.0819
  187POPC   D2A 2055   7.484   4.763   2.235  0.2323  0.1463 -0.1134
  187POPC   C3A 2056   7.577   4.826   2.678  0.1387  0.2275  0.3396
  187POPC   C4A 2057   7.935   4.847   3.002  0.2288 -0.3047 -0.1060
  187POPC   C1B 2058   7.368   3.902   2.245  0.2406  0.0934  0.0513
  187POPC   C2B 2059   7.537   3.838   2.661  0.1595 -0.1100  0.1854
  187POPC   C3B 2060   7.726   3.979   3.065  0.2046  0.0598  0.0595
  187POPC   C4B 2061   7.596   4.200   3.427  0.0896 -0.1538 -0.0653
  188POPC   NC3 2062   0.986   1.774   1.486 -0.0603  0.2525  0.1083
  188POPC   PO4 2063   0.793   1.441   1.484 -0.3677 -0.0696 -0.1770
  188POPC   GL1 2064   0.631   1.356   1.935 -0.0288  0.2743  0.4721
  188POPC   GL2 2065   0.455   1.182   1.732 -0.2684 -0.0106 -0.0528
  188POPC   C1A 2066   0.730   1.487   2.382  0.1935  0.0117 -0.1083
  188POPC   D2A 2067   0.808   1.917   2.576 -0.3007 -0.0467  0.1132
  188POPC   C3A 2068   0.736   2.042   3.003 -0.0817 -0.2251  0.4857
  188POPC   C4A 2069   1.090   2.202   3.215 -0.6183  0.0194  0.1442
  188POPC   C1B 2070   0.244   1.221   2.160 -0.2620 -0.0319  0.2386
  188POPC   C2B 2071   0.269   1.275   2.611 -0.1030 -0.2927 -0.0960
  188POPC   C3B 2072   0.330   1.269   3.121 -0.0037  0.0429  0.2479
  188POPC   C4B 2073   0.727   1.025   3.357 -0.2794 -0.3686 -0.2644
  189POPC   NC3 2074   7.088   2.279   1.853 -0.0949 -0.0109 -0.3893
  189POPC   PO4 2075   6.767   2.238   1.613  0.2417  0.1343  0.0159
  189POPC   GL1 2076   6.726   2.153   2.078  0.0984  0.2962 -0.0346
  189POPC   GL2 2077   6.400   2.189   1.938  0.1958 -0.0720 -0.0236
  189POPC   C1A 2078   6.870   2.122   2.473  0.0972  0.1367  0.2045
  189POPC   D2A 2079   7.189   1.956   2.777  0.2899 -0.4115  0.1687
  189POPC   C3A 2080   7.044   1.853   3.235 -0.2490 -0.1138 -0.0369
  189POPC   C4A 2081   6.613   1.815   3.385  0.2390  0.0367  0.0042
  189POPC   C1B 2082   6.438   1.968   2.399  0.1076 -0.1211 -0.1659
  189POPC   C2B 2083   6.348   1.846   2.836 -0.1847  0.1536 -0.1487
  189POPC   C3B 2084   6.173   2.056   3.223 -0.0475  0.0975  0.2628
  189POPC   C4B 2085   6.302   2.135   3.652  0.2344  0.1790  0.1771
  190POPC   NC3 2086   3.447   4.808   2.031  0.0493  0.0028 -0.0941
  190POPC   PO4 2087   3.578   4.470   1.865 -0.1243  0.0583 -0.0238
  190POPC   GL1 2088   3.781   4.566   2.172 -0.1034 -0.0934  0.2573
  190POPC   GL2 2089   3.977   4.784   2.080 -0.2970  0.4633 -0.0825
  190POPC   C1A 2090   3.803   4.611   2.645  0.1030  0.1407  0.0139
  190POPC   D2A 2091   3.684   4.676   3.126 -0.0178  0.1258  0.1288
  190POPC   C3A 2092   3.375   4.739   3.527 -0.3087 -0.3084 -0.0206
  190POPC   C4A 2093   3.631   4.731   3.934 -0.0242  0.1488  0.1438
  190POPC   C1B 2094   4.259   4.466   2.379 -0.0272 -0.2356  0.1319
  190POPC   C2B 2095   4.439   4.287   2.755 -0.1187  0.1534 -0.0182
  190POPC   C3B 2096   4.689   4.329   3.142  0.2353 -0.2341  0.1060
  190POPC   C4B 2097   5.169   4.158   3.296  0.4342  0.1159  0.0035
  191POPC   NC3 2098   3.749   6.224   2.101  0.1047  0.1030  0.1870
  191POPC   PO4 2099   3.987   6.013   1.798  0.0773 -0.0433 -0.3438
  191POPC   GL1 2100   4.063   5.881   2.155  0.5797  0.1735 -0.1242
  191POPC   GL2 2101   4.131   6.062   2.438 -0.1046  0.1354  0.2238
  191POPC   C1A 2102   3.764   5.712   2.447 -0.2533  0.0392  0.1058
  191POPC   D2A 2103   3.358   5.622   2.671  0.0652 -0.2729  0.1067
  191POPC   C3A 2104   3.217   5.320   2.935 -0.3872 -0.3640  0.2642
  191POPC   C4A 2105   3.046   5.098   3.333 -0.2181 -0.2107 -0.0545
  191POPC   C1B 2106   4.265   5.927   2.879 -0.3058  0.2616 -0.0474
  191POPC   C2B 2107   4.261   5.598   3.186 -0.1807 -0.2940  0.3051
  191POPC   C3B 2108   4.121   5.285   3.511  0.1795 -0.2780  0.1651
  191POPC   C4B 2109   3.871   4.903   3.512  0.0008  0.0703 -0.3830
  192POPC   NC3 2110   1.590   3.308   0.758  0.1729  0.0920 -0.1800
  192POPC   PO4 2111   1.455   3.498   1.060 -0.1682  0.0724 -0.1387
  192POPC   GL1 2112   1.828   3.540   1.418  0.2565  0.0830  0.1097
  192POPC   GL2 2113   1.849   3.329   1.603  0.0689 -0.3508  0.2602
  192POPC   C1A 2114   1.954   3.752   1.798 -0.2594 -0.2962  0.2345
  192POPC   D2A 2115   1.982   4.194   2.108 -0.3190  0.1065  0.2311
  192POPC   C3A 2116   1.721   4.130   2.508 -0.0363  0.1781  0.0266
  192POPC   C4A 2117   1.590   3.969   2.904 -0.3185  0.2198  0.1247
  192POPC   C1B 2118   1.693   3.381   2.069 -0.1539 -0.0639 -0.1590
  192POPC   C2B 2119   1.846   3.622   2.460 -0.0691  0.0241  0.2106
  192POPC   C3B 2120   2.037   3.771   2.844 -0.0548 -0.0539  0.1601
  192POPC   C4B 2121   2.025   3.783   3.237 -0.1602 -0.1391  0.0164
  193POPC   NC3 2122   2.080   8.227   1.750 -0.1286  0.2464 -0.2523
  193POPC   PO4 2123   2.076   8.624   1.830  0.3720  0.2866 -0.0754
  193POPC   GL1 2124   2.217   8.603   2.153  0.0647  0.0432 -0.2723
  193POPC   GL2 2125   2.429   8.766   2.243 -0.0862  0.1125  0.0305
  193POPC   C1A 2126   2.119   8.461   2.569  0.2938  0.1148 -0.1275
  193POPC   D2A 2127   2.179   8.140   2.897 -0.1181 -0.4870  0.1587
  193POPC   C3A 2128   2.281   8.449   3.235 -0.0520 -0.1317  0.1264
  193POPC   C4A 2129   2.481   8.905   3.214 -0.0709 -0.3534 -0.2765
  193POPC   C1B 2130   2.808   8.800   2.485  0.1339 -0.0964  0.0818
  193POPC   C2B 2131   2.882   8.877   2.896 -0.0661 -0.1597 -0.0161
  193POPC   C3B 2132   3.181   8.819   3.255 -0.2325  0.1568  0.1832
  193POPC   C4B 2133   3.317   8.854   3.673  0.1814 -0.0307  0.1066
  194POPC   NC3 2134   4.624   4.287   1.492  0.0261  0.0063 -0.0369
  194POPC   PO4 2135   4.747   3.929   1.603  0.3873  0.0976  0.1094
  194POPC   GL1 2136   4.914   3.860   1.999  0.1175 -0.1975  0.1503
  194POPC   GL2 2137   5.082   4.098   2.153  0.0834 -0.0305  0.0668
  194POPC   C1A 2138   4.981   3.645   2.433 -0.3632  0.0476  0.2154
  194POPC   D2A 2139   5.106   3.466   2.849 -0.3750 -0.0856 -0.5188
  194POPC   C3A 2140   4.943   3.694   3.264  0.0150  0.1572  0.2229
  194POPC   C4A 2141   4.979   3.898   3.689  0.0409  0.1262 -0.2249
  194POPC   C1B 2142   4.772   4.269   2.427  0.1301 -0.0547 -0.0683
  194POPC   C2B 2143   4.726   4.685   2.642  0.3151  0.1122 -0.0586
  194POPC   C3B 2144   4.833   4.796   3.083  0.1028 -0.0583  0.1039
  194POPC   C4B 2145   5.071   4.725   3.507 -0.1163  0.0580 -0.0373
  195POPC   NC3 2146   0.895   9.003   1.822  0.0359  0.0454 -0.2186
  195POPC   PO4 2147   0.748   9.238   1.596  0.3108  0.2088 -0.1474
  195POPC   GL1 2148   0.727   9.419   1.945  0.0552 -0.2843 -0.3501
  195POPC   GL2 2149   0.460   9.334   2.049 -0.1063  0.0812  0.1205
  195POPC   C1A 2150   0.686   9.787   2.176 -0.1231  0.0305 -0.4726
  195POPC   D2A 2151   0.767  10.141   2.294 -0.1280 -0.3112  0.1082
  195POPC   C3A 2152   1.162  10.395   2.348 -0.0214  0.3245  0.0082
  195POPC   C4A 2153   1.467  10.741   2.558  0.0352  0.1384  0.1396
  195POPC   C1B 2154   0.505   9.452   2.454  0.0379 -0.0266 -0.0338
  195POPC   C2B 2155   0.603   9.433   2.879  0.2104  0.2273  0.0458
  195POPC   C3B 2156   0.706   9.272   3.360  0.1122  0.1703  0.3180
  195POPC   C4B 2157   0.647   9.222   3.802 -0.1331 -0.2177 -0.0898
  196POPC   NC3 2158   4.376   8.121   2.068 -0.0570  0.0203 -0.0432
  196POPC   PO4 2159   4.442   8.458   1.848 -0.1686  0.0992 -0.1073
  196POPC   GL1 2160   4.296   8.607   2.198 -0.0722 -0.0646  0.2589
  196POPC   GL2 2161   4.583   8.656   2.298 -0.0113 -0.1722 -0.0396
  196POPC   C1A 2162   4.316   8.370   2.590  0.3361 -0.0609 -0.2424
  196POPC   D2A 2163   4.531   7.947   2.742  0.0665  0.1615  0.2836
  196POPC   C3A 2164   4.746   7.765   3.087 -0.0141 -0.0312 -0.2181
  196POPC   C4A 2165   4.568   7.517   3.427 -0.0823 -0.0083  0.2185
  196POPC   C1B 2166   4.573   8.924   2.625  0.0039 -0.1527 -0.0218
  196POPC   C2B 2167   4.460   9.292   2.851 -0.0792  0.1447  0.0683
  196POPC   C3B 2168   4.291   9.596   3.123 -0.0808 -0.0437 -0.3516
  196POPC   C4B 2169   4.059   9.962   3.272 -0.1557 -0.2366 -0.0919
  197POPC   NC3 2170   5.810   6.394   1.943  0.1645  0.2581 -0.1639
  197POPC   PO4 2171   5.923   6.736   1.771 -0.0982 -0.1043  0.2159
  197POPC   GL1 2172   5.865   6.767   2.176 -0.0423 -0.4268  0.0325
  197POPC   GL2 2173   6.056   6.904   2.335 -0.2768  0.2045 -0.1537
  197POPC   C1A 2174   5.852   6.441   2.452 -0.0808 -0.0913 -0.2457
  197POPC   D2A 2175   6.111   6.242   2.743 -0.3692 -0.0783  0.1249
  197POPC   C3A 2176   6.482   5.944   2.840  0.1564 -0.1962  0.0056
  197POPC   C4A 2177   6.705   5.776   3.204 -0.0127  0.1617  0.0965
  197POPC   C1B 2178   6.009   6.765   2.790  0.3115  0.2063  0.1023
  197POPC   C2B 2179   5.965   6.609   3.231 -0.1018 -0.2654 -0.0970
  197POPC   C3B 2180   6.033   6.827   3.622 -0.0171 -0.1110 -0.3421
  197POPC   C4B 2181   5.864   7.021   4.013  0.1233  0.0514 -0.2474
  198POPC   NC3 2182   0.512   5.294   1.240 -0.0188  0.2061  0.0438
  198POPC   PO4 2183   0.167   5.124   1.229 -0.2071  0.0613  0.2405
  198POPC   GL1 2184   0.186   4.931   1.477 -0.4872  0.0565  0.2901
  198POPC   GL2 2185   0.310   5.113   1.722  0.4431  0.2909 -0.0124
  198POPC   C1A 2186   0.180   4.541   1.706  0.3825  0.3876  0.1328
  198POPC   D2A 2187   0.099   4.159   1.867 -0.2751 -0.3732 -0.2862
  198POPC   C3A 2188  -0.016   4.309   2.273  0.2307  0.5075 -0.0985
  198POPC   C4A 2189  -0.109   4.291   2.698  0.2919  0.2109  0.2278
  198POPC   C1B 2190   0.297   4.903   2.111 -0.3064  0.1327  0.1158
  198POPC   C2B 2191   0.245   4.723   2.541  0.0895 -0.2554 -0.1305
  198POPC   C3B 2192   0.275   4.696   3.009  0.1461  0.0845 -0.0052
  198POPC   C4B 2193   0.440   5.037   3.228  0.0680 -0.4141 -0.2871
  199POPC   NC3 2194   1.751   1.847   1.598  0.0595 -0.1759 -0.1738
  199POPC   PO4 2195   1.422   1.745   1.665 -0.0478 -0.2462  0.3588
  199POPC   GL1 2196   1.123   1.828   1.939  0.1275 -0.3615  0.1737
  199POPC   GL2 2197   1.113   1.762   2.205 -0.1563 -0.0640  0.0077
  199POPC   C1A 2198   0.671   1.803   2.006 -0.0783  0.1530  0.0727
  199POPC   D2A 2199   0.337   1.718   2.345  0.2886 -0.0425  0.0455
  199POPC   C3A 2200   0.466   1.708   2.784 -0.0591 -0.1022 -0.2120
  199POPC   C4A 2201   0.467   1.719   3.292 -0.0624 -0.2306  0.0318
  199POPC   C1B 2202   0.962   2.200   2.222  0.1119  0.4283  0.1837
  199POPC   C2B 2203   0.723   2.553   2.383  0.4046  0.1310  0.1228
  199POPC   C3B 2204   0.539   2.929   2.230  0.0902  0.5241  0.0500
  199POPC   C4B 2205   0.642   3.375   2.206  0.2209 -0.2994 -0.0414
  200POPC   NC3 2206   4.840   4.505   1.971 -0.0805 -0.0569 -0.0658
  200POPC   PO4 2207   5.099   4.677   1.815  0.0938 -0.4083 -0.1385
  200POPC   GL1 2208   5.190   4.910   2.047 -0.2111 -0.0848  0.1765
  200POPC   GL2 2209   5.036   5.017   2.227 -0.1289  0.2859  0.0698
  200POPC   C1A 2210   5.244   4.639   2.450  0.4023 -0.1094  0.1404
  200POPC   D2A 2211   5.257   4.304   2.780  0.2272 -0.0505  0.1753
  200POPC   C3A 2212   4.939   3.944   2.847  0.0672 -0.1124 -0.0763
  200POPC   C4A 2213   4.513   3.870   3.060 -0.2517 -0.0395 -0.0262
  200POPC   C1B 2214   4.585   5.042   2.273 -0.1204  0.1618 -0.1555
  200POPC   C2B 2215   4.291   4.994   2.556  0.0078  0.3355  0.1530
  200POPC   C3B 2216   4.105   4.848   2.908 -0.1170  0.1162 -0.0283
  200POPC   C4B 2217   4.201   4.529   3.239 -0.2439  0.1723 -0.1409
  201POPC   NC3 2218   7.600   1.693   1.204 -0.1893  0.1430 -0.3069
  201POPC   PO4 2219   7.573   2.066   1.296  0.1247 -0.1294  0.0155
  201POPC   GL1 2220   7.728   2.085   1.640  0.1555 -0.3259 -0.1995
  201POPC   GL2 2221   7.696   1.965   1.925 -0.0064 -0.2964  0.0834
  201POPC   C1A 2222   7.580   2.478   1.863 -0.0517  0.0760 -0.2169
  201POPC   D2A 2223   7.732   2.909   1.941 -0.0570  0.1872  0.2402
  201POPC   C3A 2224   7.351   3.109   2.157 -0.2074 -0.0495  0.2324
  201POPC   C4A 2225   7.198   2.954   2.509  0.0654  0.2606 -0.0068
  201POPC   C1B 2226   7.918   1.667   2.190 -0.0208  0.1578 -0.1401
  201POPC   C2B 2227   8.056   1.484   2.573 -0.0065 -0.0949  0.0619
  201POPC   C3B 2228   8.138   1.200   2.891 -0.0677  0.0394 -0.2241
  201POPC   C4B 2229   8.165   1.382   3.324 -0.0695  0.1123  0.2506
  202POPC   NC3 2230   8.384   0.605   1.641  0.0284  0.1797 -0.1299
  202POPC   PO4 2231   8.385   0.994   1.617  0.4508  0.0589 -0.1211
  202POPC   GL1 2232   8.514   0.994   1.998 -0.1572  0.1069 -0.1755
  202POPC   GL2 2233   8.351   0.749   2.122  0.0147 -0.0003  0.0723
  202POPC   C1A 2234   8.882   1.011   2.267 -0.0834 -0.1566  0.0343
  202POPC   D2A 2235   8.983   0.795   2.653  0.1175  0.1814  0.1128
  202POPC   C3A 2236   9.119   0.899   3.078 -0.1917 -0.0784  0.1231
  202POPC   C4A 2237   9.120   0.840   3.545 -0.1142  0.3288 -0.0059
  202POPC   C1B 2238   8.422   0.947   2.571 -0.0836 -0.1159  0.1839
  202POPC   C2B 2239   8.648   1.019   3.006 -0.0515  0.2777 -0.3664
  202POPC   C3B 2240   8.588   0.953   3.424 -0.0287 -0.0795 -0.0954
  202POPC   C4B 2241   8.398   0.525   3.559 -0.0284 -0.2664  0.2051
  203POPC   NC3 2242   8.449   5.217   0.985 -0.2336 -0.1741 -0.2019
  203POPC   PO4 2243   8.280   5.325   1.343  0.1400  0.1066 -0.1246
  203POPC   GL1 2244   8.292   5.600   1.702  0.3026 -0.4590 -0.0804
  203POPC   GL2 2245   8.492   5.414   1.826  0.0495  0.1691 -0.0872
  203POPC   C1A 2246   8.066   5.621   2.119  0.3876  0.1863 -0.1139
  203POPC   D2A 2247   7.752   5.308   2.287 -0.1151  0.0976  0.2036
  203POPC   C3A 2248   8.021   5.274   2.693 -0.1712  0.1117  0.2307
  203POPC   C4A 2249   8.243   5.263   3.065  0.0095  0.1979 -0.2595
  203POPC   C1B 2250   8.431   5.304   2.274 -0.0138 -0.0516 -0.0466
  203POPC   C2B 2251   8.506   5.075   2.636 -0.0284  0.0381  0.1394
  203POPC   C3B 2252   8.736   5.175   3.020  0.3698 -0.0279 -0.1594
  203POPC   C4B 2253   8.785   5.499   3.299 -0.0181 -0.1006 -0.2496
  204POPC   NC3 2254   7.975   6.751   1.327  0.0736  0.1074  0.2693
  204POPC   PO4 2255   8.071   6.394   1.440  0.1725  0.2251 -0.1208
  204POPC   GL1 2256   8.135   6.239   1.771  0.2663 -0.0160  0.1753
  204POPC   GL2 2257   8.241   6.464   1.970 -0.2745  0.1265  0.2695
  204POPC   C1A 2258   7.849   6.104   2.090  0.3435  0.0042 -0.0099
  204POPC   D2A 2259   7.528   5.751   2.086 -0.3916  0.0129  0.0434
  204POPC   C3A 2260   7.567   5.732   2.485 -0.0604  0.1863 -0.0610
  204POPC   C4A 2261   7.568   5.865   2.939 -0.3554 -0.1408  0.2475
  204POPC   C1B 2262   8.240   6.308   2.387 -0.1870  0.2860  0.2483
  204POPC   C2B 2263   8.278   6.268   2.851  0.3272 -0.1524 -0.3263
  204POPC   C3B 2264   8.494   6.142   3.203 -0.0735  0.0091  0.1489
  204POPC   C4B 2265   8.576   6.329   3.669 -0.0719  0.0929  0.1645
  205POPC   NC3 2266   4.625   7.303   2.119  0.0235 -0.1605  0.1116
  205POPC   PO4 2267   4.729   7.697   2.201  0.1439 -0.1281 -0.1877
  205POPC   GL1 2268   4.785   7.684   2.477 -0.0039 -0.1241 -0.1846
  205POPC   GL2 2269   5.053   7.861   2.574 -0.4199  0.0159 -0.4573
  205POPC   C1A 2270   5.060   7.432   2.832 -0.1305  0.1256  0.2043
  205POPC   D2A 2271   5.073   7.017   3.063 -0.0225 -0.0186  0.1338
  205POPC   C3A 2272   4.892   7.005   3.498 -0.1183  0.0512 -0.0477
  205POPC   C4A 2273   4.476   7.067   3.682 -0.2575  0.0252 -0.2142
  205POPC   C1B 2274   4.952   8.186   2.830  0.0320  0.2349 -0.0466
  205POPC   C2B 2275   4.612   8.308   3.147  0.0567 -0.0327  0.0928
  205POPC   C3B 2276   4.220   8.422   3.389  0.1726 -0.0286 -0.1960
  205POPC   C4B 2277   4.149   8.816   3.605 -0.0084  0.2638  0.1570
  206POPC   NC3 2278   3.871   6.826   1.729 -0.2429  0.2022  0.0523
  206POPC   PO4 2279   3.639   6.515   1.696  0.2000 -0.2587 -0.0385
  206POPC   GL1 2280   3.294   6.445   1.897 -0.1045  0.0040  0.1599
  206POPC   GL2 2281   3.218   6.176   2.046 -0.1097 -0.2207 -0.0410
  206POPC   C1A 2282   3.306   6.577   2.306  0.1473  0.2131  0.0871
  206POPC   D2A 2283   3.185   6.487   2.754 -0.1509  0.1479  0.1806
  206POPC   C3A 2284   3.055   6.650   3.199 -0.0844  0.3292  0.1876
  206POPC   C4A 2285   3.161   6.799   3.672 -0.0069  0.1030 -0.1282
  206POPC   C1B 2286   3.362   6.073   2.472 -0.1845 -0.0750 -0.0705
  206POPC   C2B 2287   3.605   6.108   2.829 -0.1129 -0.2230 -0.2574
  206POPC   C3B 2288   3.696   5.791   3.147 -0.2027 -0.2155 -0.1931
  206POPC   C4B 2289   3.576   5.777   3.573  0.0418 -0.2611  0.3447
  207POPC   NC3 2290   4.332   1.961   1.366 -0.2171 -0.1409  0.1314
  207POPC   PO4 2291   4.698   2.048   1.568 -0.0186  0.5725 -0.0421
  207POPC   GL1 2292   4.747   2.234   1.907  0.3973 -0.1221  0.1973
  207POPC   GL2 2293   4.510   2.343   2.130 -0.0493  0.0961 -0.0942
  207POPC   C1A 2294   5.065   2.159   2.239  0.2617 -0.1994  0.0171
  207POPC   D2A 2295   5.104   2.205   2.726 -0.0940  0.1055  0.0962
  207POPC   C3A 2296   4.875   2.494   3.035  0.1364  0.3357  0.2721
  207POPC   C4A 2297   4.991   2.739   3.403 -0.2722  0.0198 -0.1914
  207POPC   C1B 2298   4.193   2.408   2.494 -0.2038  0.2469  0.1195
  207POPC   C2B 2299   4.093   2.755   2.745  0.2622  0.2534  0.1156
  207POPC   C3B 2300   4.200   3.142   2.944 -0.0250 -0.0527  0.2057
  207POPC   C4B 2301   4.586   3.397   2.791 -0.1586  0.4689  0.1603
  208POPC   NC3 2302   8.369   2.978   0.793  0.0465 -0.0110  0.2160
  208POPC   PO4 2303   8.238   2.730   1.087 -0.1859  0.2512 -0.0564
  208POPC   GL1 2304   8.415   2.724   1.462 -0.1784 -0.0102  0.0002
  208POPC   GL2 2305   8.548   2.468   1.506 -0.0394 -0.0581  0.2100
  208POPC   C1A 2306   8.281   2.771   1.902  0.0544 -0.0554 -0.2907
  208POPC   D2A 2307   8.070   3.084   2.225 -0.1750  0.1738  0.0765
  208POPC   C3A 2308   7.792   2.838   2.462 -0.3651 -0.0035 -0.3482
  208POPC   C4A 2309   7.559   2.731   2.863  0.1619 -0.0967  0.1780
  208POPC   C1B 2310   8.312   2.173   1.831 -0.3718 -0.0969 -0.0733
  208POPC   C2B 2311   8.012   2.400   2.139 -0.1381 -0.3230  0.0085
  208POPC   C3B 2312   7.648   2.283   2.385 -0.2819  0.0100  0.2086
  208POPC   C4B 2313   7.348   2.008   2.272 -0.0292  0.2291 -0.1162
  209POPC   NC3 2314   6.371   6.699   1.626  0.0640  0.1116  0.1516
  209POPC   PO4 2315   6.679   6.478   1.642  0.4559  0.2738 -0.0552
  209POPC   GL1 2316   6.425   6.286   1.899  0.5342  0.1927 -0.0735
  209POPC   GL2 2317   6.323   6.394   2.121  0.0180  0.1693  0.1172
  209POPC   C1A 2318   6.499   5.941   2.201 -0.2359 -0.0049 -0.2366
  209POPC   D2A 2319   6.335   5.561   2.499  0.0087  0.0092  0.0877
  209POPC   C3A 2320   6.698   5.517   2.737 -0.1908  0.0966  0.0811
  209POPC   C4A 2321   7.115   5.536   2.858 -0.3413 -0.1788  0.2219
  209POPC   C1B 2322   6.408   6.606   2.510  0.1220 -0.2542 -0.1423
  209POPC   C2B 2323   6.842   6.759   2.624 -0.0133  0.0985  0.1216
  209POPC   C3B 2324   7.018   6.777   3.021  0.2443 -0.3408 -0.1538
  209POPC   C4B 2325   6.763   6.921   3.427  0.2875  0.0500  0.0540
  210POPC   NC3 2326   6.723   1.665   1.454  0.1396 -0.1117  0.2195
  210POPC   PO4 2327   6.676   1.317   1.621 -0.0450  0.0042  0.0185
  210POPC   GL1 2328   6.849   1.321   1.987  0.0230  0.0308 -0.1279
  210POPC   GL2 2329   6.862   1.003   2.021 -0.1351 -0.2251  0.2502
  210POPC   C1A 2330   7.165   1.208   2.334 -0.0622 -0.0260  0.0017
  210POPC   D2A 2331   7.328   0.915   2.662 -0.0027 -0.0793 -0.2206
  210POPC   C3A 2332   7.177   0.856   3.122 -0.0202 -0.0206 -0.2065
  210POPC   C4A 2333   7.292   0.585   3.498 -0.2512 -0.0521 -0.0656
  210POPC   C1B 2334   6.952   0.647   2.306  0.1684 -0.1579  0.4370
  210POPC   C2B 2335   7.091   0.376   2.636 -0.3743  0.1258 -0.1849
  210POPC   C3B 2336   7.225   0.319   3.069 -0.1395  0.3295  0.2308
  210POPC   C4B 2337   7.482   0.113   3.402 -0.0299 -0.0128 -0.1145
  211POPC   NC3 2338   7.541   0.341   1.789  0.3646 -0.1018 -0.0807
  211POPC   PO4 2339   7.338   0.691   1.626  0.1369 -0.1444 -0.1525
  211POPC   GL1 2340   7.272   0.824   1.980 -0.0657  0.2379  0.1584
  211POPC   GL2 2341   7.486   0.990   2.017  0.0620  0.0931 -0.3121
  211POPC   C1A 2342   7.490   0.562   2.370 -0.0352  0.1434 -0.2269
  211POPC   D2A 2343   7.664   0.298   2.704 -0.0493 -0.2802 -0.2266
  211POPC   C3A 2344   7.878   0.244   3.106 -0.3255  0.0243 -0.0197
  211POPC   C4A 2345   7.948   0.286   3.547 -0.2559 -0.2066  0.0394
  211POPC   C1B 2346   7.715   1.133   2.355 -0.3333 -0.1431  0.0519
  211POPC   C2B 2347   7.633   1.242   2.787 -0.0155  0.2812  0.0099
  211POPC   C3B 2348   7.776   1.540   3.139  0.0707 -0.1420 -0.2063
  211POPC   C4B 2349   7.921   1.729   3.547  0.2627 -0.0534 -0.0973
  212POPC   NC3 2350   1.271   0.108   1.459 -0.1592  0.2321  0.1931
  212POPC   PO4 2351   1.496   0.422   1.595 -0.2085  0.1744  0.0577
  212POPC   GL1 2352   1.550   0.494   1.970  0.0442  0.1474  0.0259
  212POPC   GL2 2353   1.795   0.362   2.070 -0.0855  0.2110  0.0137
  212POPC   C1A 2354   1.426   0.483   2.437 -0.2500 -0.0930  0.0708
  212POPC   D2A 2355   1.252   0.376   2.861 -0.1153  0.0820  0.0464
  212POPC   C3A 2356   1.038   0.001   2.971 -0.0181  0.0048  0.2495
  212POPC   C4A 2357   0.749  -0.342   2.871 -0.4144 -0.1562  0.0234
  212POPC   C1B 2358   1.912   0.676   2.378 -0.0065  0.0023  0.0196
  212POPC   C2B 2359   1.884   1.075   2.648 -0.0393  0.1536  0.2990
  212POPC   C3B 2360   1.872   1.440   2.917  0.2605 -0.1262  0.0594
  212POPC   C4B 2361   1.780   1.471   3.364 -0.1037  0.2468 -0.2012
  213POPC   NC3 2362   2.475   1.592   1.950  0.2083 -0.2778 -0.1196
  213POPC   PO4 2363   2.844   1.547   1.892 -0.0807 -0.1399  0.2178
  213POPC   GL1 2364   2.677   1.811   2.287  0.1074  0.1208 -0.1877
  213POPC   GL2 2365   2.983   1.809   2.376  0.0612  0.2005 -0.1351
  213POPC   C1A 2366   2.508   1.887   2.728  0.0507  0.0742 -0.0906
  213POPC   D2A 2367   2.217   1.732   3.120  0.2577  0.1830 -0.0907
  213POPC   C3A 2368   2.227   1.339   3.323  0.2006  0.2974 -0.0796
  213POPC   C4A 2369   2.438   1.120   3.647 -0.1186  0.0957 -0.1161
  213POPC   C1B 2370   2.937   1.594   2.806  0.0686  0.1033 -0.2964
  213POPC   C2B 2371   2.724   1.525   3.162 -0.3284 -0.1008  0.1638
  213POPC   C3B 2372   2.609   1.663   3.596  0.0864 -0.0378 -0.1539
  213POPC   C4B 2373   2.191   1.576   3.793  0.4753  0.0452  0.0274
  214POPC   NC3 2374   3.379   5.381   1.719 -0.2820  0.2479 -0.5588
  214POPC   PO4 2375   3.044   5.189   1.773  0.0674 -0.2187  0.0472
  214POPC   GL1 2376   3.147   5.181   2.105  0.0252 -0.2900  0.1633
  214POPC   GL2 2377   3.390   5.308   2.249 -0.1239 -0.1576  0.0324
  214POPC   C1A 2378   2.972   5.249   2.519  0.1206 -0.2219  0.0002
  214POPC   D2A 2379   2.828   5.043   2.841  0.1696  0.3318 -0.0519
  214POPC   C3A 2380   2.632   4.643   2.675  0.0106  0.1268  0.0137
  214POPC   C4A 2381   2.296   4.497   2.360 -0.2653  0.2253  0.0248
  214POPC   C1B 2382   3.362   4.925   2.496 -0.0045  0.0392 -0.1172
  214POPC   C2B 2383   3.291   4.860   2.922 -0.2605  0.1520  0.0603
  214POPC   C3B 2384   2.952   4.631   3.193  0.3318  0.1303  0.0793
  214POPC   C4B 2385   2.759   4.714   3.561  0.3069 -0.0024 -0.1847
  215POPC   NC3 2386   0.302   7.334   1.753 -0.2329  0.0237 -0.0420
  215POPC   PO4 2387   0.336   7.720   1.726  0.0743 -0.2864  0.0644
  215POPC   GL1 2388   0.106   7.739   2.115 -0.2691  0.4867  0.0616
  215POPC   GL2 2389  -0.027   7.453   2.125  0.0510 -0.0824  0.0883
  215POPC   C1A 2390   0.115   8.058   2.447  0.0471  0.0921 -0.0276
  215POPC   D2A 2391  -0.055   8.055   2.826  0.2262 -0.2086  0.0560
  215POPC   C3A 2392  -0.159   7.921   3.231  0.0652 -0.0749 -0.2910
  215POPC   C4A 2393  -0.216   7.910   3.710 -0.0359  0.2758 -0.4752
  215POPC   C1B 2394   0.102   7.041   2.251 -0.2216  0.0160 -0.1822
  215POPC   C2B 2395   0.372   6.750   2.529  0.0114 -0.3395 -0.1479
  215POPC   C3B 2396   0.712   6.777   2.802 -0.0627 -0.1491 -0.0459
  215POPC   C4B 2397   0.721   6.975   3.235  0.1280 -0.4650 -0.1277
  216POPC   NC3 2398   0.158   6.533   1.556  0.0669  0.0601  0.0643
  216POPC   PO4 2399   0.421   6.853   1.487  0.1736  0.0158  0.0778
  216POPC   GL1 2400   0.616   6.918   1.943  0.5423  0.1388  0.0755
  216POPC   GL2 2401   0.802   7.152   2.002  0.0749  0.1005  0.4088
  216POPC   C1A 2402   0.724   6.576   2.227 -0.0818  0.1495 -0.4253
  216POPC   D2A 2403   0.486   6.140   2.275 -0.2500 -0.1684  0.1755
  216POPC   C3A 2404   0.443   5.790   2.528 -0.1289  0.1651 -0.1601
  216POPC   C4A 2405   0.421   5.559   2.910  0.1212 -0.0316 -0.1281
  216POPC   C1B 2406   0.722   7.250   2.400  0.4347  0.0547 -0.3911
  216POPC   C2B 2407   0.510   7.329   2.783 -0.2984 -0.1083  0.0353
  216POPC   C3B 2408   0.211   7.090   3.059  0.2658 -0.0400 -0.1594
  216POPC   C4B 2409  -0.141   6.824   2.899 -0.2354 -0.1443 -0.1554
  217POPC   NC3 2410   2.531   5.352   1.472  0.0635 -0.0439  0.3357
  217POPC   PO4 2411   2.589   4.976   1.571 -0.0743  0.1127 -0.1295
  217POPC   GL1 2412   2.399   4.976   1.889 -0.3494  0.1344 -0.1960
  217POPC   GL2 2413   2.174   4.831   1.908  0.1874 -0.0086 -0.0191
  217POPC   C1A 2414   2.353   5.014   2.351 -0.2483  0.1962  0.3210
  217POPC   D2A 2415   2.529   5.352   2.651 -0.1017 -0.0187 -0.3217
  217POPC   C3A 2416   2.321   5.688   2.956 -0.1838  0.0381  0.0534
  217POPC   C4A 2417   1.976   6.005   3.095 -0.0183 -0.1563 -0.2379
  217POPC   C1B 2418   1.890   4.908   2.163  0.0388  0.0646 -0.3275
  217POPC   C2B 2419   1.870   4.663   2.568  0.0514 -0.1363 -0.2637
  217POPC   C3B 2420   2.055   4.298   2.825 -0.1229 -0.0349  0.0988
  217POPC   C4B 2421   2.362   4.194   3.183 -0.0038 -0.1121  0.0392
  218POPC   NC3 2422   2.202   5.985   1.200 -0.3466 -0.0359 -0.0157
  218POPC   PO4 2423   2.095   5.719   1.462 -0.1209 -0.0718 -0.1800
  218POPC   GL1 2424   1.808   5.911   1.740  0.1667 -0.1753  0.0308
  218POPC   GL2 2425   1.678   5.747   1.884 -0.0302  0.1046  0.1040
  218POPC   C1A 2426   1.742   6.242   2.122  0.0414  0.0433 -0.0612
  218POPC   D2A 2427   1.921   6.557   2.423 -0.1885 -0.1622 -0.0885
  218POPC   C3A 2428   1.987   6.847   2.786  0.0968  0.3513 -0.2878
  218POPC   C4A 2429   2.118   7.168   3.020 -0.0297 -0.0201  0.1735
  218POPC   C1B 2430   1.747   5.503   2.237  0.1111  0.2131  0.2489
  218POPC   C2B 2431   1.758   5.178   2.538 -0.0084 -0.1450 -0.1599
  218POPC   C3B 2432   1.652   4.976   2.916 -0.0078  0.1382  0.1395
  218POPC   C4B 2433   1.383   5.049   3.226 -0.3532 -0.0950 -0.0040
  219POPC   NC3 2434   0.319   4.066   1.312  0.0107 -0.1668 -0.2257
  219POPC   PO4 2435   0.411   3.724   1.144 -0.2446  0.2746 -0.2746
  219POPC   GL1 2436   0.340   3.489   1.464  0.5319  0.0610  0.2695
  219POPC   GL2 2437   0.259   3.686   1.715  0.1119  0.0126  0.3337
  219POPC   C1A 2438   0.448   3.200   1.791 -0.0378 -0.1429  0.1369
  219POPC   D2A 2439   0.256   2.752   1.858  0.0000 -0.3918 -0.4284
  219POPC   C3A 2440   0.286   2.429   2.188  0.2296  0.3631 -0.1517
  219POPC   C4A 2441   0.379   2.135   2.605 -0.1551 -0.2447  0.1954
  219POPC   C1B 2442   0.229   3.745   2.151  0.0749  0.1343 -0.0093
  219POPC   C2B 2443   0.196   3.725   2.628 -0.1266 -0.2819  0.2333
  219POPC   C3B 2444   0.032   3.528   3.021 -0.0271 -0.2653 -0.1587
  219POPC   C4B 2445  -0.335   3.472   3.345 -0.1214  0.0583  0.0643
  220POPC   NC3 2446   0.112   8.548   1.690  0.1698  0.3513 -0.0652
  220POPC   PO4 2447   0.419   8.827   1.750  0.0051  0.0339 -0.2175
  220POPC   GL1 2448   0.228   8.816   2.036  0.2124 -0.3543  0.2473
  220POPC   GL2 2449   0.274   8.556   2.201  0.0238  0.1944  0.1112
  220POPC   C1A 2450   0.084   9.161   2.350  0.0316  0.2128 -0.1622
  220POPC   D2A 2451   0.065   9.457   2.692  0.0900 -0.0279  0.0814
  220POPC   C3A 2452   0.140   9.528   3.141  0.2139  0.1145  0.1581
  220POPC   C4A 2453   0.442   9.765   3.408 -0.0975 -0.0987 -0.1271
  220POPC   C1B 2454  -0.002   8.640   2.571  0.3887  0.3762  0.3377
  220POPC   C2B 2455  -0.037   8.575   3.002  0.1497  0.0302  0.0599
  220POPC   C3B 2456   0.022   8.507   3.403 -0.2777 -0.2485  0.1616
  220POPC   C4B 2457  -0.031   8.602   3.819  0.0562 -0.3565 -0.2726
  221POPC   NC3 2458   4.575   6.557   1.828  0.1250  0.1833  0.1046
  221POPC   PO4 2459   4.390   6.870   1.895  0.0575 -0.1092  0.2404
  221POPC   GL1 2460   4.538   6.848   2.293  0.0105  0.3446 -0.3772
  221POPC   GL2 2461   4.276   6.935   2.422 -0.3991 -0.2570  0.1599
  221POPC   C1A 2462   4.593   6.711   2.747  0.1125  0.4287 -0.2127
  221POPC   D2A 2463   4.505   6.917   3.135 -0.0437  0.2406  0.0082
  221POPC   C3A 2464   4.648   6.639   3.384  0.5799 -0.0362  0.0409
  221POPC   C4A 2465   4.699   6.382   3.749  0.1922 -0.0224 -0.0663
  221POPC   C1B 2466   4.148   6.532   2.610  0.1897  0.0082  0.0700
  221POPC   C2B 2467   4.316   6.476   3.044 -0.0560  0.3559 -0.0583
  221POPC   C3B 2468   4.303   6.223   3.400  0.1111 -0.2262  0.1229
  221POPC   C4B 2469   4.232   5.859   3.683  0.0418  0.0278 -0.4625
  222POPC   NC3 2470   1.800   4.586   1.102  0.3107 -0.0976 -0.2558
  222POPC   PO4 2471   1.916   4.291   1.335  0.0547  0.4487 -0.2785
  222POPC   GL1 2472   1.724   4.423   1.673 -0.1514  0.2437  0.4877
  222POPC   GL2 2473   1.644   4.179   1.813  0.0779  0.1098  0.1177
  222POPC   C1A 2474   1.590   4.544   2.086  0.0206  0.1741 -0.1392
  222POPC   D2A 2475   1.341   4.607   2.476 -0.1614 -0.0028 -0.1768
  222POPC   C3A 2476   1.340   4.490   2.874  0.1063 -0.0226  0.0064
  222POPC   C4A 2477   1.316   4.287   3.265 -0.0518  0.0161  0.1984
  222POPC   C1B 2478   1.197   4.342   1.781 -0.1471 -0.0765  0.3774
  222POPC   C2B 2479   1.023   4.239   2.214  0.1619  0.2128 -0.0581
  222POPC   C3B 2480   1.185   4.092   2.598 -0.3319 -0.0347  0.1075
  222POPC   C4B 2481   1.023   3.828   2.975  0.2834 -0.3160  0.2610
  223POPC   NC3 2482   1.596   6.425   1.355 -0.0727 -0.0441 -0.0678
  223POPC   PO4 2483   1.356   6.145   1.457 -0.1589 -0.0572 -0.0827
  223POPC   GL1 2484   1.433   6.113   1.871  0.0557  0.1257 -0.1021
  223POPC   GL2 2485   1.259   6.381   1.936  0.0511 -0.1788 -0.2635
  223POPC   C1A 2486   1.401   5.912   2.317 -0.2519 -0.2831  0.2363
  223POPC   D2A 2487   1.447   5.544   2.638 -0.1962 -0.3487  0.2189
  223POPC   C3A 2488   1.823   5.545   2.912 -0.0974  0.0443 -0.1815
  223POPC   C4A 2489   2.089   5.139   3.021 -0.1598  0.1061 -0.0337
  223POPC   C1B 2490   1.218   6.490   2.423  0.2373 -0.2554  0.1322
  223POPC   C2B 2491   1.369   6.571   2.846 -0.1475  0.0158  0.0216
  223POPC   C3B 2492   1.750   6.435   3.115  0.1824 -0.1748 -0.0106
  223POPC   C4B 2493   2.165   6.608   3.232  0.0551 -0.0928  0.1034
  224POPC   NC3 2494   6.335   7.353   2.141 -0.0153  0.0707 -0.2672
  224POPC   PO4 2495   6.437   7.084   1.869  0.0669  0.1515 -0.3161
  224POPC   GL1 2496   6.491   6.876   2.142  0.5054  0.3375 -0.1875
  224POPC   GL2 2497   6.703   6.718   2.067  0.0513 -0.1057  0.2879
  224POPC   C1A 2498   6.495   7.082   2.576 -0.0368 -0.1001  0.0926
  224POPC   D2A 2499   6.446   7.114   3.056 -0.1527 -0.0632 -0.0572
  224POPC   C3A 2500   6.480   6.600   3.052  0.0891  0.0443 -0.4039
  224POPC   C4A 2501   6.327   6.222   3.247 -0.1595 -0.0277 -0.2984
  224POPC   C1B 2502   7.131   6.725   2.063 -0.1014  0.0350 -0.0339
  224POPC   C2B 2503   7.513   6.982   2.130 -0.0071 -0.0381  0.1490
  224POPC   C3B 2504   7.741   7.283   2.430  0.0452  0.2223 -0.1662
  224POPC   C4B 2505   7.828   7.154   2.885  0.0295  0.0944  0.0145
  225POPC   NC3 2506   3.767   7.614   1.754 -0.1150 -0.2287 -0.0364
  225POPC   PO4 2507   3.485   7.334   1.581  0.0143  0.0512 -0.3472
  225POPC   GL1 2508   3.625   7.160   1.970 -0.0476 -0.1878  0.0742
  225POPC   GL2 2509   3.438   6.941   1.982  0.1965  0.0582  0.0576
  225POPC   C1A 2510   3.620   7.446   2.345  0.0347 -0.0444 -0.1546
  225POPC   D2A 2511   3.636   7.637   2.798  0.1855  0.1577  0.0990
  225POPC   C3A 2512   3.832   7.411   3.154 -0.0982 -0.0763  0.2710
  225POPC   C4A 2513   4.088   7.243   3.489  0.3292  0.1133 -0.0333
  225POPC   C1B 2514   3.752   6.817   2.312  0.1798 -0.0617 -0.2087
  225POPC   C2B 2515   3.659   6.618   2.684  0.2184 -0.0839  0.2541
  225POPC   C3B 2516   3.628   6.527   3.116 -0.1223  0.1776 -0.0247
  225POPC   C4B 2517   3.407   6.155   3.288 -0.1071 -0.2121  0.0060
  226POPC   NC3 2518   1.274   2.372   1.045  0.1109  0.1034  0.0598
  226POPC   PO4 2519   1.054   2.183   1.257 -0.1366 -0.1156 -0.0795
  226POPC   GL1 2520   0.913   2.392   1.495 -0.3445 -0.3340 -0.2229
  226POPC   GL2 2521   0.772   2.296   1.739 -0.1259 -0.1722 -0.0817
  226POPC   C1A 2522   0.847   2.886   1.571  0.0794 -0.1295 -0.2890
  226POPC   D2A 2523   1.100   3.173   1.737  0.4154 -0.0656  0.0671
  226POPC   C3A 2524   1.110   3.583   2.004 -0.2135  0.2454  0.0233
  226POPC   C4A 2525   1.445   3.858   2.164 -0.1474  0.1904  0.1343
  226POPC   C1B 2526   0.310   2.182   1.728 -0.0142 -0.0342 -0.0071
  226POPC   C2B 2527   0.102   1.773   1.930 -0.1340  0.1704 -0.0357
  226POPC   C3B 2528  -0.162   1.566   2.290  0.1125 -0.0990 -0.0688
  226POPC   C4B 2529  -0.219   1.307   2.661  0.0407 -0.2388  0.2581
  227POPE   NH3 2530   1.161   5.861   0.969  0.0826 -0.3552  0.2235
  227POPE   PO4 2531   1.105   5.728   1.244 -0.0933  0.2018  0.0687
  227POPE   GL1 2532   1.215   5.631   1.656  0.3976 -0.3934  0.2195
  227POPE   GL2 2533   0.998   5.887   1.858  0.2366 -0.0870  0.0838
  227POPE   C1A 2534   1.265   5.476   2.083 -0.0930  0.2645  0.0959
  227POPE   D2A 2535   1.264   5.060   2.313  0.1940 -0.0721  0.0671
  227POPE   C3A 2536   1.181   4.985   2.746  0.1580 -0.2579 -0.2450
  227POPE   C4A 2537   0.860   4.669   2.946  0.1318 -0.4922  0.0243
  227POPE   C1B 2538   0.869   5.854   2.300 -0.0620 -0.0046 -0.0674
  227POPE   C2B 2539   1.033   6.050   2.658  0.1915 -0.0079 -0.0356
  227POPE   C3B 2540   0.787   5.915   3.031 -0.0473  0.1069  0.0561
  227POPE   C4B 2541   0.647   5.598   3.395  0.0339  0.3659 -0.0824
  228POPE   NH3 2542   0.578   5.837   0.726 -0.2355 -0.1840  0.2997
  228POPE   PO4 2543   0.626   5.791   1.037 -0.0175  0.2581  0.1559
  228POPE   GL1 2544   0.550   5.712   1.512  0.0394 -0.4289  0.2753
  228POPE   GL2 2545   0.768   5.478   1.624  0.0571 -0.2334 -0.0818
  228POPE   C1A 2546   0.379   5.831   1.950  0.3103  0.4597  0.1845
  228POPE   D2A 2547   0.169   5.474   2.143 -0.3918  0.2188  0.0129
  228POPE   C3A 2548   0.190   5.188   2.507  0.2666  0.0220  0.1241
  228POPE   C4A 2549   0.065   5.144   2.874  0.2411  0.0462  0.4248
  228POPE   C1B 2550   0.643   5.341   2.060 -0.1706  0.2171  0.0493
  228POPE   C2B 2551   0.895   5.375   2.472  0.1616  0.1422  0.3310
  228POPE   C3B 2552   1.020   5.498   2.888 -0.0392 -0.0872 -0.0138
  228POPE   C4B 2553   0.905   5.182   3.200  0.2334  0.2687  0.0036
  229POPE   NH3 2554   3.928   0.285   1.657 -0.0511  0.1424 -0.3847
  229POPE   PO4 2555   4.003   0.067   1.913 -0.0109 -0.0720 -0.1247
  229POPE   GL1 2556   4.088  -0.070   2.227 -0.1364  0.0761  0.3701
  229POPE   GL2 2557   4.311   0.115   2.322 -0.2161  0.0004  0.3071
  229POPE   C1A 2558   4.069  -0.316   2.606  0.2361  0.2542 -0.2205
  229POPE   D2A 2559   3.983  -0.655   2.954 -0.2085 -0.0478  0.0758
  229POPE   C3A 2560   3.712  -0.569   3.286 -0.0209  0.2329 -0.1424
  229POPE   C4A 2561   3.683  -0.647   3.762 -0.1898  0.0603  0.2606
  229POPE   C1B 2562   4.352   0.539   2.512 -0.0368 -0.1117 -0.1577
  229POPE   C2B 2563   4.318   0.897   2.797  0.0841  0.0367 -0.3409
  229POPE   C3B 2564   4.465   1.097   3.191 -0.1482 -0.0726  0.0745
  229POPE   C4B 2565   4.627   1.407   3.438  0.0693 -0.0169 -0.1285
  230POPE   NH3 2566   4.519   1.654   1.896 -0.1325  0.0172 -0.1424
  230POPE   PO4 2567   4.352   1.446   2.125  0.2313 -0.0218  0.0017
  230POPE   GL1 2568   4.220   1.384   2.486  0.0101 -0.0871  0.1769
  230POPE   GL2 2569   4.017   1.587   2.505  0.1006 -0.0738  0.1652
  230POPE   C1A 2570   4.340   1.576   2.879 -0.0621  0.2666  0.0356
  230POPE   D2A 2571   4.319   1.764   3.284  0.2260 -0.2380 -0.1513
  230POPE   C3A 2572   4.401   2.217   3.425 -0.0890 -0.2312 -0.0076
  230POPE   C4A 2573   4.650   2.459   3.685 -0.1084  0.3121  0.0021
  230POPE   C1B 2574   3.826   1.684   2.921  0.0652  0.1687  0.1264
  230POPE   C2B 2575   3.701   1.871   3.299 -0.1313 -0.3188 -0.1990
  230POPE   C3B 2576   3.835   1.787   3.719  0.2914 -0.0505 -0.0710
  230POPE   C4B 2577   4.016   1.762   4.161  0.1851 -0.0328 -0.0227
  231POPE   NH3 2578   1.050   8.314   1.914  0.0720 -0.0440  0.0612
  231POPE   PO4 2579   0.886   8.461   1.718 -0.2003 -0.0559 -0.2836
  231POPE   GL1 2580   0.722   8.653   2.092  0.3830 -0.1532 -0.0680
  231POPE   GL2 2581   0.709   8.432   2.311  0.0294  0.0332 -0.0181
  231POPE   C1A 2582   0.578   8.932   2.416  0.3111  0.1264  0.1228
  231POPE   D2A 2583   0.261   9.000   2.745  0.4497 -0.0972  0.2537
  231POPE   C3A 2584   0.368   8.817   3.201 -0.1653 -0.0706  0.3019
  231POPE   C4A 2585   0.356   8.924   3.643 -0.0203 -0.0680 -0.2023
  231POPE   C1B 2586   0.470   8.475   2.663  0.0895 -0.2333 -0.0352
  231POPE   C2B 2587   0.372   8.277   3.074  0.0123 -0.0054 -0.0718
  231POPE   C3B 2588   0.323   8.152   3.522  0.1686  0.2328  0.5013
  231POPE   C4B 2589   0.267   8.037   3.916 -0.2551 -0.2730 -0.2704
  232POPE   NH3 2590   3.705   4.011   1.674 -0.2934  0.0932 -0.1048
  232POPE   PO4 2591   3.958   3.863   1.566  0.0386  0.0654 -0.2196
  232POPE   GL1 2592   4.057   3.865   2.001  0.1157  0.2579  0.3336
  232POPE   GL2 2593   4.004   4.126   2.110 -0.2416  0.0029 -0.2468
  232POPE   C1A 2594   3.819   3.684   2.376 -0.0976  0.0768 -0.0197
  232POPE   D2A 2595   3.567   3.836   2.758 -0.0018 -0.2936 -0.2121
  232POPE   C3A 2596   3.387   3.678   3.157  0.1210  0.1326 -0.2701
  232POPE   C4A 2597   3.303   3.366   3.518  0.1657 -0.0383  0.1019
  232POPE   C1B 2598   3.957   4.163   2.569 -0.0401 -0.4254 -0.0726
  232POPE   C2B 2599   3.868   4.190   3.007 -0.0830 -0.1543 -0.1326
  232POPE   C3B 2600   4.089   4.073   3.411 -0.0411 -0.2220  0.0676
  232POPE   C4B 2601   4.530   3.943   3.521  0.2395  0.0001 -0.0783
  233POPE   NH3 2602   7.278   8.728   1.790 -0.0968 -0.1483 -0.2826
  233POPE   PO4 2603   7.042   8.554   1.854 -0.3102 -0.1901 -0.0369
  233POPE   GL1 2604   7.107   8.626   2.221 -0.1140 -0.1593  0.1537
  233POPE   GL2 2605   7.119   8.906   2.254 -0.0498 -0.1257  0.0496
  233POPE   C1A 2606   7.314   8.408   2.626  0.1509 -0.2598  0.0226
  233POPE   D2A 2607   7.390   8.469   3.021 -0.1050 -0.0226 -0.0143
  233POPE   C3A 2608   7.614   8.549   3.407  0.1702 -0.2820 -0.3155
  233POPE   C4A 2609   7.643   8.894   3.704 -0.0431 -0.0762 -0.0657
  233POPE   C1B 2610   7.280   9.003   2.633 -0.0691 -0.0694 -0.1792
  233POPE   C2B 2611   7.578   9.032   3.012  0.2393  0.6159  0.2663
  233POPE   C3B 2612   7.953   8.942   3.315  0.0129 -0.2096 -0.1143
  233POPE   C4B 2613   8.088   8.739   3.676 -0.0871 -0.1118 -0.0450
  234POPE   NH3 2614   4.464   1.045   1.660  0.0503  0.4653 -0.0403
  234POPE   PO4 2615   4.585   0.861   1.916 -0.0196  0.1741 -0.1360
  234POPE   GL1 2616   4.292   1.028   2.225  0.0982  0.1341 -0.0986
  234POPE   GL2 2617   4.563   1.020   2.413  0.0074 -0.1523  0.0855
  234POPE   C1A 2618   3.935   1.019   2.530  0.0315  0.1390  0.0397
  234POPE   D2A 2619   3.869   1.171   2.970  0.0650  0.0588 -0.2438
  234POPE   C3A 2620   3.623   0.937   3.203  0.0331 -0.0382  0.3523
  234POPE   C4A 2621   3.507   0.848   3.587  0.1065 -0.0506  0.2103
  234POPE   C1B 2622   4.712   1.285   2.777  0.2594  0.1465 -0.0664
  234POPE   C2B 2623   4.922   1.533   3.086  0.1059 -0.0299 -0.1341
  234POPE   C3B 2624   5.164   1.718   3.407  0.1942  0.0907  0.1545
  234POPE   C4B 2625   5.349   1.882   3.802 -0.1479  0.2330  0.0190
  235POPE   NH3 2626   4.447   8.992   1.899  0.2945  0.0339  0.1048
  235POPE   PO4 2627   4.623   9.210   1.810 -0.1541  0.2747  0.1953
  235POPE   GL1 2628   4.840   9.316   2.100  0.0215 -0.3496 -0.1496
  235POPE   GL2 2629   4.747   9.559   2.153 -0.2974 -0.3051 -0.0445
  235POPE   C1A 2630   5.020   9.265   2.550 -0.1334  0.2576  0.1289
  235POPE   D2A 2631   5.222   9.552   2.815 -0.4533 -0.2225  0.2394
  235POPE   C3A 2632   5.426   9.256   3.192  0.1994  0.2018  0.2955
  235POPE   C4A 2633   5.236   8.891   3.437 -0.1172 -0.1204 -0.0849
  235POPE   C1B 2634   4.840   9.786   2.527 -0.1695  0.1790  0.0333
  235POPE   C2B 2635   4.771   9.829   3.041 -0.1225  0.2982  0.1741
  235POPE   C3B 2636   4.919  10.119   3.393 -0.2113  0.0655  0.2054
  235POPE   C4B 2637   5.062   9.960   3.796 -0.1502  0.4342  0.0908
  236POPE   NH3 2638   6.997   1.247   1.186 -0.0581  0.2293 -0.3286
  236POPE   PO4 2639   7.168   1.496   1.280  0.1130 -0.1262  0.1726
  236POPE   GL1 2640   7.365   1.654   1.602  0.1643 -0.0424  0.3648
  236POPE   GL2 2641   7.237   1.810   1.647 -0.3164  0.0360  0.3561
  236POPE   C1A 2642   7.422   1.581   2.081  0.0265 -0.1938  0.1474
  236POPE   D2A 2643   7.567   1.637   2.514  0.1143  0.1848  0.3014
  236POPE   C3A 2644   7.775   1.923   2.742  0.0277  0.1113 -0.1723
  236POPE   C4A 2645   7.973   2.386   2.775  0.0257 -0.1475 -0.0642
  236POPE   C1B 2646   6.987   1.732   2.066  0.3397  0.1061 -0.0640
  236POPE   C2B 2647   6.840   1.612   2.473 -0.0313 -0.2500 -0.1937
  236POPE   C3B 2648   6.813   1.559   2.923 -0.1113 -0.1791  0.0479
  236POPE   C4B 2649   6.882   1.317   3.366  0.0949 -0.1301 -0.2174
  237POPE   NH3 2650   7.063   8.002   1.877  0.1977  0.1640 -0.3146
  237POPE   PO4 2651   7.197   7.669   1.741 -0.0216  0.1848 -0.1053
  237POPE   GL1 2652   7.123   7.542   2.052 -0.0768 -0.2732  0.2115
  237POPE   GL2 2653   7.378   7.633   2.187  0.3053 -0.1255 -0.0884
  237POPE   C1A 2654   7.013   7.274   2.391  0.0049 -0.1376 -0.0111
  237POPE   D2A 2655   6.938   7.244   2.883  0.5646 -0.0943 -0.1113
  237POPE   C3A 2656   6.941   7.669   2.952 -0.0625 -0.1946 -0.1818
  237POPE   C4A 2657   6.912   8.115   2.813 -0.1691 -0.1664  0.2556
  237POPE   C1B 2658   7.337   7.928   2.544 -0.3503 -0.0790 -0.0813
  237POPE   C2B 2659   7.315   7.966   3.040  0.1755  0.0075 -0.1119
  237POPE   C3B 2660   7.202   7.919   3.465 -0.1553 -0.4547 -0.0702
  237POPE   C4B 2661   6.860   8.097   3.735  0.1646  0.1602  0.4739
  238POPE   NH3 2662   0.010   1.330   1.610  0.2910  0.1447 -0.0168
  238POPE   PO4 2663  -0.273   1.164   1.620  0.0569 -0.0965  0.0336
  238POPE   GL1 2664  -0.335   1.335   1.941 -0.1549  0.3295 -0.1190
  238POPE   GL2 2665  -0.356   1.633   1.792  0.0421  0.1345  0.0907
  238POPE   C1A 2666  -0.635   1.371   2.290 -0.1463 -0.3285 -0.2525
  238POPE   D2A 2667  -0.591   1.668   2.624 -0.1983 -0.3077 -0.0263
  238POPE   C3A 2668  -0.550   1.527   3.089 -0.1497 -0.1063 -0.1593
  238POPE   C4A 2669  -0.175   1.287   3.334 -0.2922 -0.1484 -0.0364
  238POPE   C1B 2670  -0.593   1.837   2.132 -0.1457  0.2973 -0.0335
  238POPE   C2B 2671  -0.925   1.992   2.445  0.0906  0.3149  0.0566
  238POPE   C3B 2672  -0.894   1.942   2.941  0.2053 -0.0531 -0.1283
  238POPE   C4B 2673  -0.806   2.048   3.374 -0.0910  0.2304 -0.2070
  239POPE   NH3 2674   1.580   8.612   2.102 -0.1990  0.0955  0.0636
  239POPE   PO4 2675   1.330   8.715   1.951  0.1321  0.0428 -0.0893
  239POPE   GL1 2676   1.038   8.928   2.255  0.1937 -0.1104 -0.2863
  239POPE   GL2 2677   1.084   8.680   2.457 -0.0441 -0.1944 -0.0267
  239POPE   C1A 2678   0.981   9.389   2.357  0.1034  0.0308  0.0660
  239POPE   D2A 2679   0.887   9.726   2.660 -0.1134 -0.2702  0.0571
  239POPE   C3A 2680   0.916   9.797   3.130 -0.2863  0.0584  0.3518
  239POPE   C4A 2681   1.049   9.728   3.555  0.3388 -0.1262 -0.3242
  239POPE   C1B 2682   0.947   8.375   2.788 -0.2349  0.0171  0.1422
  239POPE   C2B 2683   0.800   8.408   3.183 -0.1042  0.1496  0.2169
  239POPE   C3B 2684   0.775   8.384   3.626  0.2711 -0.1123 -0.0642
  239POPE   C4B 2685   0.496   8.545   4.008  0.3191 -0.1673 -0.1239
  240POPE   NH3 2686   2.555   2.256   1.270  0.2821 -0.3407  0.3465
  240POPE   PO4 2687   2.365   2.390   1.517  0.1549  0.1566 -0.0586
  240POPE   GL1 2688   2.093   2.478   1.797  0.1328 -0.0177 -0.0101
  240POPE   GL2 2689   1.824   2.311   1.774  0.4174  0.0088  0.2863
  240POPE   C1A 2690   2.023   2.623   2.201 -0.4911 -0.1276  0.0993
  240POPE   D2A 2691   1.890   2.561   2.613  0.2739  0.0812 -0.4131
  240POPE   C3A 2692   1.568   2.820   2.832  0.4763 -0.4189 -0.3280
  240POPE   C4A 2693   1.261   3.065   3.088  0.3344 -0.2480 -0.6093
  240POPE   C1B 2694   1.554   2.502   2.100  0.0907 -0.2147 -0.0245
  240POPE   C2B 2695   1.320   2.532   2.499 -0.0651 -0.0784 -0.3377
  240POPE   C3B 2696   0.995   2.415   2.788 -0.2463  0.5715  0.1016
  240POPE   C4B 2697   0.593   2.453   2.927  0.1703  0.2798  0.0527
  241POPE   NH3 2698   2.236   4.333   1.698 -0.0764  0.0356 -0.2187
  241POPE   PO4 2699   2.547   4.445   1.613  0.2351 -0.1658 -0.1705
  241POPE   GL1 2700   2.634   4.525   1.966 -0.0910 -0.3423 -0.0941
  241POPE   GL2 2701   2.785   4.811   2.052  0.0526 -0.2287 -0.0352
  241POPE   C1A 2702   2.700   4.174   2.246  0.3182  0.2450 -0.1409
  241POPE   D2A 2703   3.075   4.047   2.425 -0.2515 -0.3280 -0.1185
  241POPE   C3A 2704   3.001   3.833   2.842  0.2153 -0.1049  0.1350
  241POPE   C4A 2705   3.031   3.976   3.309  0.1695  0.0190 -0.0310
  241POPE   C1B 2706   2.990   4.567   2.363  0.1963 -0.0019 -0.2714
  241POPE   C2B 2707   3.358   4.395   2.656 -0.1596  0.0352  0.0676
  241POPE   C3B 2708   3.385   4.305   3.118 -0.1036  0.0461  0.0266
  241POPE   C4B 2709   3.649   4.304   3.549  0.3667  0.1722 -0.0938
  242POPE   NH3 2710   1.747   2.838   0.599  0.1459 -0.2388  0.1040
  242POPE   PO4 2711   1.692   2.584   0.806  0.2884 -0.1391 -0.0157
  242POPE   GL1 2712   1.639   2.682   1.215 -0.1442  0.0186  0.2748
  242POPE   GL2 2713   1.807   2.705   1.417 -0.1371  0.0542  0.0015
  242POPE   C1A 2714   1.304   2.740   1.568  0.0121 -0.2680 -0.2295
  242POPE   D2A 2715   1.117   2.652   1.971  0.0068 -0.1193 -0.0228
  242POPE   C3A 2716   1.069   2.998   2.266 -0.0320  0.2269 -0.0709
  242POPE   C4A 2717   0.877   2.923   2.676 -0.0805 -0.2070  0.1015
  242POPE   C1B 2718   1.706   2.918   1.859 -0.2025 -0.0650  0.0219
  242POPE   C2B 2719   1.622   2.912   2.319 -0.0109 -0.2327 -0.1486
  242POPE   C3B 2720   1.372   3.243   2.508 -0.2423  0.1323 -0.2608
  242POPE   C4B 2721   1.442   3.493   2.853 -0.1378 -0.3336 -0.0187
  243POPE   NH3 2722   3.976   4.851   1.569  0.3416 -0.2799 -0.0394
  243POPE   PO4 2723   3.765   5.148   1.525 -0.1410 -0.0678 -0.0276
  243POPE   GL1 2724   3.784   5.212   1.978 -0.2168 -0.3130  0.5027
  243POPE   GL2 2725   3.891   5.485   1.908  0.4109  0.0132  0.2197
  243POPE   C1A 2726   3.773   5.157   2.417 -0.2293  0.0304 -0.0684
  243POPE   D2A 2727   3.834   5.363   2.802 -0.0350  0.2160 -0.1271
  243POPE   C3A 2728   3.673   5.236   3.219  0.3231 -0.1573 -0.1341
  243POPE   C4A 2729   3.517   5.259   3.624 -0.3017  0.0166 -0.1690
  243POPE   C1B 2730   4.219   5.485   2.326  0.2063  0.2975  0.3255
  243POPE   C2B 2731   4.435   5.457   2.756  0.3746 -0.0205 -0.0834
  243POPE   C3B 2732   4.516   5.162   3.101  0.0454 -0.0542 -0.2438
  243POPE   C4B 2733   4.495   4.896   3.443  0.2941  0.1673  0.2519
  244POPE   NH3 2734   5.523   2.933   1.569  0.2102  0.1286  0.0891
  244POPE   PO4 2735   5.687   2.744   1.753  0.1012 -0.2622 -0.1926
  244POPE   GL1 2736   5.793   2.708   2.110  0.0799 -0.0595  0.2035
  244POPE   GL2 2737   5.969   2.897   2.250 -0.2834 -0.2731  0.0120
  244POPE   C1A 2738   5.752   2.486   2.528 -0.1018  0.0390  0.2288
  244POPE   D2A 2739   5.998   2.249   2.802 -0.1007 -0.3603  0.2830
  244POPE   C3A 2740   6.206   2.615   2.999  0.1918  0.0259  0.1992
  244POPE   C4A 2741   6.524   2.770   3.257  0.1146  0.2250 -0.2103
  244POPE   C1B 2742   6.176   2.908   2.622  0.3284 -0.0213 -0.1019
  244POPE   C2B 2743   6.271   3.164   2.956 -0.1460 -0.0428  0.1731
  244POPE   C3B 2744   6.047   3.142   3.391  0.0238 -0.1787  0.0988
  244POPE   C4B 2745   5.811   2.999   3.777  0.0770 -0.2330 -0.2273
  245POPE   NH3 2746   6.174   8.422   1.973 -0.1970 -0.0205 -0.1584
  245POPE   PO4 2747   6.183   8.133   1.945 -0.1316  0.0988  0.2255
  245POPE   GL1 2748   6.122   8.128   2.333  0.1662  0.2175  0.1678
  245POPE   GL2 2749   6.483   7.944   2.365  0.4387  0.2072  0.1919
  245POPE   C1A 2750   6.083   7.839   2.694 -0.2067  0.1405 -0.1020
  245POPE   D2A 2751   6.385   7.743   3.072 -0.0323  0.0181 -0.3751
  245POPE   C3A 2752   6.704   8.034   3.257  0.0912  0.1903 -0.1104
  245POPE   C4A 2753   6.977   8.375   3.402 -0.1496  0.2165  0.0044
  245POPE   C1B 2754   6.424   8.152   2.731  0.1175  0.1931  0.1181
  245POPE   C2B 2755   6.548   8.474   3.016  0.2981 -0.2511  0.1511
  245POPE   C3B 2756   6.470   8.505   3.465  0.0017 -0.1087 -0.0849
  245POPE   C4B 2757   6.335   8.826   3.734 -0.1401 -0.0690  0.2503
  246POPE   NH3 2758   5.424   7.173   1.889  0.1587  0.0806 -0.2325
  246POPE   PO4 2759   5.431   6.998   2.128  0.3026  0.4937 -0.2338
  246POPE   GL1 2760   5.164   6.889   2.351  0.1431 -0.0459 -0.1444
  246POPE   GL2 2761   5.307   6.844   2.606 -0.0368  0.0037  0.1657
  246POPE   C1A 2762   4.822   7.076   2.573 -0.0233  0.0084  0.1596
  246POPE   D2A 2763   4.559   7.410   2.805  0.0808 -0.2263  0.1683
  246POPE   C3A 2764   4.266   7.651   3.010  0.1484 -0.0109  0.3149
  246POPE   C4A 2765   4.142   7.787   3.422 -0.0024 -0.1467 -0.1728
  246POPE   C1B 2766   5.495   6.809   3.061 -0.0616 -0.3122  0.0910
  246POPE   C2B 2767   5.624   7.010   3.495  0.3203  0.2917  0.3901
  246POPE   C3B 2768   5.468   7.274   3.788  0.1058  0.2779 -0.0545
  246POPE   C4B 2769   5.635   7.494   4.174  0.0332 -0.1301  0.0122
  247POPE   NH3 2770   1.475   7.427   1.407  0.0112  0.0947  0.2936
  247POPE   PO4 2771   1.609   7.641   1.617  0.2322 -0.1163 -0.2803
  247POPE   GL1 2772   1.843   7.370   1.661 -0.3325 -0.2224  0.0103
  247POPE   GL2 2773   1.722   7.175   1.824  0.1681 -0.1441  0.1165
  247POPE   C1A 2774   2.079   7.330   2.059  0.0173 -0.2978  0.1522
  247POPE   D2A 2775   2.224   7.674   2.387 -0.1025 -0.6196  0.3830
  247POPE   C3A 2776   2.087   7.634   2.859 -0.3802 -0.0039 -0.2294
  247POPE   C4A 2777   1.845   7.573   3.240  0.0398  0.0509 -0.4200
  247POPE   C1B 2778   1.687   6.951   2.206  0.3566 -0.4761 -0.0831
  247POPE   C2B 2779   1.556   6.935   2.581 -0.0104 -0.0095 -0.0985
  247POPE   C3B 2780   1.584   6.983   3.036  0.0548 -0.1879  0.0255
  247POPE   C4B 2781   1.826   7.003   3.404 -0.3032  0.3645 -0.0728
  248POPE   NH3 2782   4.915   8.391   1.934  0.0145  0.1475 -0.3756
  248POPE   PO4 2783   5.201   8.450   1.863 -0.1134 -0.2369 -0.0329
  248POPE   GL1 2784   5.331   8.592   2.178 -0.1492 -0.3219 -0.1674
  248POPE   GL2 2785   5.270   8.327   2.335  0.1976 -0.1043 -0.1110
  248POPE   C1A 2786   5.015   8.697   2.511  0.1393  0.0316 -0.0340
  248POPE   D2A 2787   4.912   8.711   2.958 -0.0475  0.2683 -0.1676
  248POPE   C3A 2788   4.868   9.163   3.075 -0.0125 -0.1777 -0.0699
  248POPE   C4A 2789   5.028   9.520   3.293 -0.2296  0.4611  0.1437
  248POPE   C1B 2790   5.403   8.417   2.767  0.0799  0.2210 -0.5283
  248POPE   C2B 2791   5.592   8.315   3.165 -0.2745 -0.1578  0.0474
  248POPE   C3B 2792   5.638   8.043   3.588  0.3464 -0.0824  0.1405
  248POPE   C4B 2793   5.905   7.859   3.925 -0.3018 -0.1551  0.3255
  249POPE   NH3 2794   4.897   3.249   1.373 -0.2562  0.3687 -0.1260
  249POPE   PO4 2795   4.952   3.450   1.616 -0.0523  0.1956  0.0575
  249POPE   GL1 2796   5.167   3.441   1.983  0.2460 -0.2370 -0.0739
  249POPE   GL2 2797   5.477   3.348   1.934 -0.0223  0.1619 -0.1573
  249POPE   C1A 2798   5.071   3.176   2.397 -0.2973  0.0018  0.1436
  249POPE   D2A 2799   5.045   2.961   2.819  0.1738 -0.4371 -0.0795
  249POPE   C3A 2800   4.863   3.220   3.176 -0.1266 -0.0516 -0.0290
  249POPE   C4A 2801   4.465   3.405   3.275 -0.1286  0.0634  0.1743
  249POPE   C1B 2802   5.623   3.254   2.359 -0.0133  0.0161 -0.1213
  249POPE   C2B 2803   5.598   3.039   2.736 -0.1519 -0.1808  0.4980
  249POPE   C3B 2804   5.788   2.820   3.058  0.0197 -0.2208  0.1099
  249POPE   C4B 2805   5.490   2.871   3.380 -0.0401  0.0952  0.1059
  250POPE   NH3 2806   2.630   6.978   1.300  0.0091  0.0384 -0.1702
  250POPE   PO4 2807   2.730   7.175   1.522 -0.1120  0.2552 -0.2455
  250POPE   GL1 2808   3.048   7.181   1.780  0.2800  0.2039  0.0104
  250POPE   GL2 2809   3.010   7.508   1.708 -0.1559  0.2144  0.3035
  250POPE   C1A 2810   3.128   7.293   2.227  0.1502 -0.1807 -0.1410
  250POPE   D2A 2811   3.394   7.042   2.537 -0.0773 -0.1718 -0.1085
  250POPE   C3A 2812   3.467   6.988   3.031  0.3509  0.2654 -0.2556
  250POPE   C4A 2813   3.592   6.964   3.494  0.1236 -0.1159 -0.2688
  250POPE   C1B 2814   2.719   7.508   2.102 -0.2976  0.0195 -0.2294
  250POPE   C2B 2815   2.738   7.359   2.567 -0.2183  0.0363 -0.2317
  250POPE   C3B 2816   2.544   7.470   2.984  0.1625 -0.2344  0.0533
  250POPE   C4B 2817   2.317   7.608   3.314 -0.0914 -0.0791  0.1298
  251POPE   NH3 2818   8.538   6.260   1.221 -0.2671  0.3167  0.1736
  251POPE   PO4 2819   8.555   6.534   1.297 -0.1002 -0.2687  0.1365
  251POPE   GL1 2820   8.639   6.254   1.671  0.0972 -0.2102  0.2721
  251POPE   GL2 2821   8.851   6.436   1.713 -0.0524  0.0382 -0.0427
  251POPE   C1A 2822   8.416   5.996   1.940  0.0752  0.1203  0.1035
  251POPE   D2A 2823   8.471   5.840   2.387  0.2396  0.0110  0.2429
  251POPE   C3A 2824   8.078   5.847   2.554  0.2296  0.0906 -0.1858
  251POPE   C4A 2825   7.799   6.168   2.588  0.0493 -0.1397 -0.2389
  251POPE   C1B 2826   8.725   6.307   2.156  0.1516 -0.0853 -0.1463
  251POPE   C2B 2827   8.682   6.241   2.619 -0.0808  0.1404  0.0809
  251POPE   C3B 2828   8.879   5.971   2.887  0.0994 -0.3212  0.0150
  251POPE   C4B 2829   9.091   5.584   2.919  0.1059  0.3187 -0.1125
  252POPE   NH3 2830   3.640   3.186   1.570 -0.4040  0.0657 -0.1349
  252POPE   PO4 2831   3.363   3.036   1.566  0.1081  0.2271 -0.1371
  252POPE   GL1 2832   3.139   3.107   1.981 -0.0448  0.2368 -0.0030
  252POPE   GL2 2833   3.395   3.222   2.116 -0.0135  0.1299 -0.2733
  252POPE   C1A 2834   2.756   2.991   2.217 -0.1757 -0.0760  0.0923
  252POPE   D2A 2835   2.630   3.079   2.666  0.2585 -0.2656 -0.2563
  252POPE   C3A 2836   2.882   2.941   3.042 -0.2155  0.0041 -0.1852
  252POPE   C4A 2837   3.243   2.861   3.368 -0.0757  0.0486 -0.1883
  252POPE   C1B 2838   3.222   2.948   2.401  0.6277  0.2888  0.2125
  252POPE   C2B 2839   2.942   2.698   2.596 -0.2351  0.0476 -0.1183
  252POPE   C3B 2840   2.643   2.539   2.911  0.1083 -0.1164  0.1784
  252POPE   C4B 2841   2.254   2.295   3.027  0.0742 -0.1163  0.1173
  253POPE   NH3 2842   4.640   2.770   1.870  0.2183 -0.1991  0.1976
  253POPE   PO4 2843   4.505   3.075   1.729  0.2414 -0.0864  0.1246
  253POPE   GL1 2844   4.516   3.201   2.112  0.2946 -0.0045  0.0705
  253POPE   GL2 2845   4.673   3.404   2.068  0.0033  0.0016 -0.2218
  253POPE   C1A 2846   4.211   3.300   2.452  0.4755  0.0187  0.6254
  253POPE   D2A 2847   3.771   3.144   2.553 -0.1532 -0.1390  0.0091
  253POPE   C3A 2848   3.724   3.296   2.991 -0.0860 -0.2746  0.2185
  253POPE   C4A 2849   3.829   3.222   3.432 -0.0382  0.1826  0.0373
  253POPE   C1B 2850   4.361   3.726   2.290  0.1376 -0.3255  0.0772
  253POPE   C2B 2851   4.216   3.716   2.704  0.0239 -0.1148 -0.0142
  253POPE   C3B 2852   3.999   3.656   3.161  0.0434 -0.0214  0.2020
  253POPE   C4B 2853   3.732   3.723   3.477 -0.0297 -0.0779  0.0942
  254POPE   NH3 2854   7.928   8.857   1.613 -0.1864 -0.0652 -0.2584
  254POPE   PO4 2855   7.696   9.023   1.768 -0.2628 -0.0754  0.1447
  254POPE   GL1 2856   7.759   8.863   2.047 -0.0617 -0.4388  0.1163
  254POPE   GL2 2857   7.654   8.592   2.097 -0.0843  0.1917  0.2956
  254POPE   C1A 2858   7.719   8.856   2.502 -0.0348  0.1111  0.0836
  254POPE   D2A 2859   7.953   8.647   2.870 -0.1391  0.0382  0.0432
  254POPE   C3A 2860   8.356   8.738   3.044 -0.2024 -0.1283  0.1092
  254POPE   C4A 2861   8.751   8.798   3.289  0.2364  0.0073 -0.1518
  254POPE   C1B 2862   7.796   8.339   2.511 -0.0552  0.0412  0.1778
  254POPE   C2B 2863   7.739   8.131   2.855  0.2420 -0.2797  0.0996
  254POPE   C3B 2864   7.783   7.897   3.191  0.0047  0.2421 -0.0203
  254POPE   C4B 2865   7.674   7.603   3.517  0.1710  0.0997 -0.1966
  255POPE   NH3 2866   5.183   0.334   1.443  0.0816  0.0268  0.2826
  255POPE   PO4 2867   5.100   0.106   1.675  0.1514  0.1154  0.2112
  255POPE   GL1 2868   5.435   0.142   1.986  0.1063 -0.2100 -0.0138
  255POPE   GL2 2869   5.248   0.355   2.194 -0.0012 -0.3689  0.1531
  255POPE   C1A 2870   5.425  -0.101   2.348  0.0881 -0.3688 -0.0655
  255POPE   D2A 2871   5.412  -0.219   2.795  0.2290 -0.0147  0.3436
  255POPE   C3A 2872   5.733  -0.374   3.096 -0.1133 -0.2439  0.1631
  255POPE   C4A 2873   6.009  -0.560   3.425 -0.3257 -0.3078  0.1698
  255POPE   C1B 2874   5.673   0.333   2.367  0.0694 -0.1607 -0.0510
  255POPE   C2B 2875   5.735   0.466   2.835 -0.0782 -0.0927  0.0564
  255POPE   C3B 2876   5.636   0.775   3.239  0.2871 -0.0359  0.1518
  255POPE   C4B 2877   5.494   0.943   3.656 -0.3308 -0.4572  0.4888
  256POPE   NH3 2878   6.636   4.498   1.270  0.1302 -0.0774 -0.0752
  256POPE   PO4 2879   6.870   4.343   1.364  0.2012 -0.0772  0.0362
  256POPE   GL1 2880   6.915   4.430   1.787  0.0280 -0.4062 -0.1666
  256POPE   GL2 2881   6.622   4.449   1.841 -0.2389 -0.3113  0.3287
  256POPE   C1A 2882   6.910   4.208   2.239 -0.0097 -0.0663 -0.1421
  256POPE   D2A 2883   6.638   4.324   2.604  0.2630 -0.0956  0.3924
  256POPE   C3A 2884   6.716   4.367   3.013  0.2090  0.0693  0.0514
  256POPE   C4A 2885   7.031   4.382   3.363  0.0398 -0.3300 -0.2640
  256POPE   C1B 2886   6.397   4.201   2.142  0.0082  0.0141  0.0632
  256POPE   C2B 2887   6.174   4.048   2.471 -0.2152  0.1180 -0.0520
  256POPE   C3B 2888   6.107   3.832   2.903 -0.1162  0.3121  0.0259
  256POPE   C4B 2889   6.123   3.608   3.294 -0.1554  0.2864  0.6453
  257POPE   NH3 2890   2.946   0.097   1.494 -0.0698  0.5634 -0.2136
  257POPE   PO4 2891   2.793  -0.133   1.672  0.1128  0.0442 -0.0997
  257POPE   GL1 2892   3.076  -0.035   1.925 -0.4462 -0.0730  0.0684
  257POPE   GL2 2893   3.148  -0.267   2.080  0.1030 -0.0703  0.0622
  257POPE   C1A 2894   3.127   0.257   2.288  0.0446 -0.2568 -0.0883
  257POPE   D2A 2895   3.230   0.436   2.694 -0.0452 -0.1009  0.0473
  257POPE   C3A 2896   3.161   0.102   2.978 -0.1882 -0.1090  0.1579
  257POPE   C4A 2897   2.833   0.194   3.250  0.2276  0.1842  0.3946
  257POPE   C1B 2898   3.309  -0.181   2.505  0.0785 -0.2418 -0.0847
  257POPE   C2B 2899   3.590  -0.244   2.915 -0.3573 -0.0471  0.3631
  257POPE   C3B 2900   3.676  -0.101   3.358 -0.2316 -0.1266 -0.1302
  257POPE   C4B 2901   3.748  -0.146   3.822  0.0437  0.0072 -0.0645
  258POPE   NH3 2902   6.446   0.823   1.785  0.0582 -0.0271  0.1685
  258POPE   PO4 2903   6.365   0.516   1.783 -0.3515  0.1336  0.0654
  258POPE   GL1 2904   6.274   0.643   2.187 -0.1723  0.1607  0.1747
  258POPE   GL2 2905   6.223   0.424   2.301  0.0759  0.1053 -0.0175
  258POPE   C1A 2906   6.508   0.948   2.467  0.0837 -0.0978 -0.3408
  258POPE   D2A 2907   6.746   1.070   2.823  0.0301  0.1877  0.3918
  258POPE   C3A 2908   6.425   1.124   3.132 -0.0579 -0.2501 -0.6302
  258POPE   C4A 2909   6.444   1.127   3.620 -0.0970 -0.1384  0.1251
  258POPE   C1B 2910   6.617   0.461   2.588  0.2263  0.1499 -0.4022
  258POPE   C2B 2911   6.753   0.549   3.044  0.0499 -0.1167  0.2473
  258POPE   C3B 2912   6.706   0.809   3.403  0.0307  0.2716  0.2623
  258POPE   C4B 2913   7.009   0.907   3.754 -0.0436  0.1446  0.0736
  259POPE   NH3 2914   8.546   8.975   1.702 -0.0148 -0.3220  0.1987
  259POPE   PO4 2915   8.315   9.159   1.610  0.1271 -0.0950 -0.1070
  259POPE   GL1 2916   8.255   9.071   2.012 -0.1549 -0.0882  0.1126
  259POPE   GL2 2917   8.074   9.268   2.074 -0.1304 -0.2614  0.2116
  259POPE   C1A 2918   8.612   9.041   2.325  0.2640  0.0022  0.1474
  259POPE   D2A 2919   8.743   8.947   2.724  0.0361 -0.1481 -0.1679
  259POPE   C3A 2920   8.821   9.309   2.989 -0.0376  0.2606 -0.0472
  259POPE   C4A 2921   8.852   9.668   3.264 -0.3021  0.2085  0.1762
  259POPE   C1B 2922   8.141   9.562   2.425 -0.0102  0.0666  0.0156
  259POPE   C2B 2923   7.980   9.937   2.652 -0.1377 -0.3472 -0.0923
  259POPE   C3B 2924   7.672   9.820   3.000  0.2868 -0.3182 -0.1993
  259POPE   C4B 2925   7.576  10.203   3.338  0.1674 -0.1489  0.2956
  260POPE   NH3 2926   3.947   8.466   1.416  0.1005 -0.1568 -0.1251
  260POPE   PO4 2927   3.650   8.604   1.324  0.1847  0.1874 -0.1906
  260POPE   GL1 2928   3.598   8.480   1.740 -0.4923 -0.0054  0.1326
  260POPE   GL2 2929   3.471   8.204   1.667 -0.1998 -0.0826 -0.1959
  260POPE   C1A 2930   3.281   8.411   2.062 -0.1787 -0.0933 -0.0655
  260POPE   D2A 2931   3.034   8.221   2.356  0.0853  0.1682 -0.0260
  260POPE   C3A 2932   3.019   8.423   2.775  0.3677  0.0899 -0.0124
  260POPE   C4A 2933   2.811   8.490   3.206  0.0213 -0.4640 -0.1008
  260POPE   C1B 2934   3.474   7.967   2.133 -0.1313  0.1146 -0.1446
  260POPE   C2B 2935   3.208   7.725   2.504 -0.2458 -0.1881  0.2178
  260POPE   C3B 2936   3.106   7.484   2.905 -0.3163 -0.0229 -0.0202
  260POPE   C4B 2937   2.911   7.662   3.325 -0.0446  0.1136  0.2196
  261POPE   NH3 2938   7.281   7.249   1.407 -0.3383 -0.0936 -0.1795
  261POPE   PO4 2939   7.503   7.040   1.449 -0.6514 -0.1213 -0.0778
  261POPE   GL1 2940   7.815   6.977   1.759  0.0067  0.3983 -0.1711
  261POPE   GL2 2941   7.799   6.681   1.785 -0.4745 -0.0677 -0.1295
  261POPE   C1A 2942   8.169   7.034   2.044  0.1488 -0.1524 -0.2468
  261POPE   D2A 2943   8.622   7.060   2.121  0.0718  0.0943 -0.0391
  261POPE   C3A 2944   8.830   7.188   2.493 -0.0926  0.2604 -0.0636
  261POPE   C4A 2945   9.143   7.445   2.766  0.0225  0.1597 -0.2274
  261POPE   C1B 2946   7.850   6.621   2.216  0.0262 -0.3531 -0.1104
  261POPE   C2B 2947   7.815   6.716   2.678 -0.0066  0.1259 -0.1608
  261POPE   C3B 2948   8.144   6.770   2.992 -0.0130  0.1847  0.2094
  261POPE   C4B 2949   8.187   6.526   3.350 -0.2301  0.1259  0.3206
  262POPE   NH3 2950   5.137   7.957   2.061  0.1429  0.1678 -0.2642
  262POPE   PO4 2951   5.393   7.747   2.134  0.1245  0.5625  0.0968
  262POPE   GL1 2952   5.528   7.600   2.437  0.2234  0.0225 -0.0439
  262POPE   GL2 2953   5.618   7.336   2.452  0.0442 -0.5081 -0.0180
  262POPE   C1A 2954   5.508   7.792   2.855 -0.1745 -0.1014 -0.0272
  262POPE   D2A 2955   5.200   7.919   3.178 -0.0662  0.2300 -0.1476
  262POPE   C3A 2956   5.083   8.366   3.333 -0.2487  0.1055 -0.1480
  262POPE   C4A 2957   5.362   8.508   3.660  0.0415 -0.2900 -0.0059
  262POPE   C1B 2958   5.554   7.288   2.920  0.3095 -0.0228  0.3784
  262POPE   C2B 2959   5.349   7.435   3.309 -0.0384  0.2229 -0.1614
  262POPE   C3B 2960   5.055   7.523   3.636 -0.0782  0.1373  0.3067
  262POPE   C4B 2961   4.829   7.700   3.984 -0.0961  0.0274  0.1316
  263POPE   NH3 2962   6.998   5.977   1.231  0.2366  0.3954 -0.0601
  263POPE   PO4 2963   7.173   6.198   1.379  0.3759 -0.0206 -0.1500
  263POPE   GL1 2964   7.111   6.241   1.773  0.0961  0.2118  0.2236
  263POPE   GL2 2965   6.892   6.200   1.988 -0.2262 -0.0045  0.1732
  263POPE   C1A 2966   7.334   6.243   2.169  0.1052 -0.1891 -0.0558
  263POPE   D2A 2967   7.307   6.573   2.538 -0.2894  0.0839 -0.3560
  263POPE   C3A 2968   7.389   6.996   2.675 -0.0149 -0.0393 -0.0214
  263POPE   C4A 2969   7.366   7.429   2.785 -0.1754 -0.0118  0.1499
  263POPE   C1B 2970   6.788   6.313   2.418  0.3950  0.1717  0.1063
  263POPE   C2B 2971   6.873   6.314   2.911 -0.0405  0.0493  0.2408
  263POPE   C3B 2972   6.908   6.385   3.383  0.2210 -0.0068  0.3175
  263POPE   C4B 2973   6.855   6.367   3.878 -0.2050 -0.1867  0.1489
  264POPE   NH3 2974   7.631   5.929   1.572 -0.2384  0.1454  0.1484
  264POPE   PO4 2975   7.828   5.656   1.482  0.0410  0.2812 -0.0809
  264POPE   GL1 2976   7.741   5.374   1.732 -0.0042  0.1385 -0.1300
  264POPE   GL2 2977   8.001   5.246   1.808 -0.0483  0.1527 -0.0146
  264POPE   C1A 2978   7.322   5.346   1.954 -0.0834  0.1460  0.6318
  264POPE   D2A 2979   7.232   5.330   2.411 -0.0494  0.1390  0.0572
  264POPE   C3A 2980   7.545   5.322   2.758 -0.2413 -0.2519 -0.0061
  264POPE   C4A 2981   7.824   5.433   3.161 -0.0930 -0.3454 -0.2205
  264POPE   C1B 2982   7.996   4.844   2.112 -0.0309 -0.1462  0.0069
  264POPE   C2B 2983   8.136   4.744   2.538  0.1113  0.3751 -0.4766
  264POPE   C3B 2984   8.403   4.740   2.942  0.0084  0.1835  0.0503
  264POPE   C4B 2985   8.565   4.327   3.136 -0.1431 -0.1419  0.0391
  265POPE   NH3 2986   6.805   2.604   1.237 -0.4600  0.1290 -0.2289
  265POPE   PO4 2987   6.871   2.845   1.462 -0.0020  0.1981 -0.0896
  265POPE   GL1 2988   6.730   2.769   1.843  0.5550 -0.0869  0.1511
  265POPE   GL2 2989   6.394   2.845   1.830 -0.0275 -0.1501 -0.1811
  265POPE   C1A 2990   6.895   2.642   2.216  0.1562 -0.0595 -0.2173
  265POPE   D2A 2991   7.212   2.427   2.542  0.2191 -0.2483 -0.0232
  265POPE   C3A 2992   7.030   2.425   2.959  0.2831  0.4136 -0.1435
  265POPE   C4A 2993   6.703   2.163   2.934 -0.0142  0.2609  0.3228
  265POPE   C1B 2994   6.474   3.047   2.240  0.1654  0.2068  0.0067
  265POPE   C2B 2995   6.679   3.330   2.562 -0.1361 -0.1677 -0.2099
  265POPE   C3B 2996   6.616   3.586   2.963 -0.0589  0.1741 -0.1261
  265POPE   C4B 2997   6.764   3.814   3.339  0.1688 -0.4535 -0.3553
  266POPE   NH3 2998   5.192   5.716   1.766 -0.0893 -0.4792  0.0574
  266POPE   PO4 2999   4.891   5.744   1.900  0.0442  0.0304  0.0707
  266POPE   GL1 3000   5.030   5.503   2.106 -0.1841 -0.1826 -0.0106
  266POPE   GL2 3001   4.812   5.429   2.290 -0.0733  0.1184 -0.0641
  266POPE   C1A 3002   5.301   5.460   2.508  0.0158  0.0407  0.1456
  266POPE   D2A 3003   5.445   5.503   2.930 -0.0577 -0.0326  0.1100
  266POPE   C3A 3004   5.387   5.951   3.091  0.0256 -0.1080 -0.2875
  266POPE   C4A 3005   5.454   6.364   2.875 -0.1745  0.1514 -0.2176
  266POPE   C1B 3006   4.880   5.175   2.655  0.1393  0.2294 -0.2762
  266POPE   C2B 3007   5.249   5.029   2.831 -0.0519 -0.1879  0.0836
  266POPE   C3B 3008   5.365   4.692   3.140  0.1257 -0.1004 -0.2465
  266POPE   C4B 3009   5.633   4.356   3.361 -0.2199  0.1298  0.1731
  267POPE   NH3 3010   0.160   5.663   1.158  0.2537 -0.2240 -0.0860
  267POPE   PO4 3011  -0.115   5.853   1.205  0.2697  0.0615 -0.1755
  267POPE   GL1 3012  -0.214   6.012   1.513  0.0561  0.2122  0.0615
  267POPE   GL2 3013  -0.442   5.832   1.591  0.2640  0.0004 -0.0376
  267POPE   C1A 3014   0.003   6.123   1.903 -0.1729  0.1407 -0.3921
  267POPE   D2A 3015   0.188   6.539   2.112 -0.0749 -0.2950  0.0732
  267POPE   C3A 3016  -0.116   6.602   2.426 -0.1476  0.0537  0.4628
  267POPE   C4A 3017  -0.554   6.723   2.549 -0.1531 -0.0507  0.0620
  267POPE   C1B 3018  -0.282   5.712   2.037  0.2891 -0.0483 -0.1055
  267POPE   C2B 3019  -0.123   5.936   2.407  0.3984  0.1606  0.3593
  267POPE   C3B 3020   0.162   6.200   2.635  0.0960 -0.1141 -0.0180
  267POPE   C4B 3021   0.590   6.354   2.757 -0.4069  0.1689  0.1695
  268POPE   NH3 3022   1.236   7.468   1.890  0.1519  0.2505 -0.0726
  268POPE   PO4 3023   1.175   7.780   1.941 -0.0508 -0.0412 -0.1151
  268POPE   GL1 3024   1.317   7.946   2.264 -0.0422  0.2599 -0.0576
  268POPE   GL2 3025   0.988   8.039   2.312  0.0903  0.2318  0.2496
  268POPE   C1A 3026   1.630   7.949   2.593 -0.0132  0.1760 -0.0149
  268POPE   D2A 3027   1.667   8.052   3.054 -0.0321 -0.1054  0.0174
  268POPE   C3A 3028   1.352   7.824   3.281 -0.1658  0.0952  0.2520
  268POPE   C4A 3029   1.169   7.715   3.676 -0.0961  0.2757 -0.3089
  268POPE   C1B 3030   0.657   8.039   2.623 -0.2766  0.1183  0.0487
  268POPE   C2B 3031   0.417   7.794   2.902 -0.0490  0.4002 -0.2146
  268POPE   C3B 3032   0.162   7.546   3.215  0.1677 -0.0587 -0.2867
  268POPE   C4B 3033  -0.090   7.447   3.595  0.2853  0.0586  0.0084
  269W        W 3034   3.766   4.115   6.046  0.1516  0.1288 -0.1027
  270W        W 3035   2.138   5.409   1.807  0.2070 -0.1320  0.1925
  271W        W 3036   1.555   3.085   1.295  0.1025 -0.0448  0.2157
  272W        W 3037   2.074   1.391   6.805  0.1995 -0.0502 -0.1425
  273W        W 3038   0.993   5.209   1.241 -0.0112  0.1172  0.2228
  274W        W 3039   3.726   3.579   6.130 -0.1365 -0.1141  0.3748
  275W        W 3040   5.925   8.919   1.180  0.0083 -0.2850 -0.0412
  276W        W 3041   7.288   5.270   6.450 -0.2502  0.0227  0.3627
  277W        W 3042   0.719   8.785   6.243 -0.2827 -0.0597  0.2066
  278W        W 3043   4.964   1.376   0.916 -0.1166  0.0397  0.0604
  279W        W 3044   3.880   0.487   2.171  0.0405  0.0226 -0.1919
  280W        W 3045   8.359   4.444   6.245 -0.1853  0.0276 -0.1801
  281W        W 3046   8.499   1.917   1.475  0.2196 -0.1727 -0.0390
  282W        W 3047   1.180   4.295   6.136 -0.3022  0.1472  0.1235
  283W        W 3048   1.181   7.546   0.355  0.0067  0.0483 -0.3193
  284W        W 3049   1.885   6.085   0.146 -0.1794  0.0328  0.1221
  285W        W 3050   6.589   7.507   0.545  0.3144  0.2739 -0.0895
  286W        W 3051   4.494   8.821   6.439  0.0300  0.0209 -0.0631
  287W        W 3052   7.935   5.606   0.073  0.2227  0.0778  0.0845
  288W        W 3053   7.161   5.003   6.813  0.0354  0.0621  0.1164
  289W        W 3054   2.261   7.531   0.762 -0.0039 -0.2137  0.0010
  290W        W 3055   7.159   6.677   1.610  0.1114 -0.1590 -0.0652
  291W        W 3056   2.772   8.608   5.709 -0.0652  0.0075  0.1093
  292W        W 3057   3.554   5.780   1.972  0.1895  0.1450 -0.1080
  293W        W 3058   1.531   7.881   0.094  0.0719  0.2308  0.0788
  294W        W 3059   1.981   5.060   0.241 -0.0169 -0.2844 -0.0729
  295W        W 3060   7.694   2.629   5.513 -0.1138 -0.0092 -0.1861
  296W        W 3061   2.158   8.869   6.339 -0.0253 -0.1908  0.2797
  297W        W 3062   7.528   1.630   5.766 -0.0129  0.3674 -0.0632
  298W        W 3063   4.924   2.700   6.672  0.0357 -0.0529 -0.1443
  299W        W 3064   0.115   5.247   0.324 -0.0711  0.1646 -0.2272
  300W        W 3065   7.922   8.570   1.192 -0.1150 -0.1827  0.3738
  301W        W 3066   3.107   7.905   6.177  0.1100  0.1519 -0.1487
  302W        W 3067   5.652   7.415   6.196 -0.0068 -0.4177  0.0113
  303W        W 3068   8.062   1.287   1.367  0.0380  0.1529 -0.1059
  304W        W 3069   3.214   6.711   6.265  0.0842  0.1407  0.2005
  305W        W 3070   9.033   6.423   1.104 -0.0855  0.1376  0.0924
  306W        W 3071   4.389   0.578   6.765 -0.1679 -0.1603  0.0012
  307W        W 3072   0.750   1.774   1.062  0.2320 -0.1505 -0.4228
  308W        W 3073   1.707   2.906   6.318  0.0313 -0.2478 -0.0846
  309W        W 3074   8.040   3.460   6.175  0.1528  0.0258 -0.1564
  310W        W 3075   3.466   1.420   0.780 -0.1200 -0.0435 -0.0072
  311W        W 3076   0.918   4.950   7.062 -0.0837 -0.2862  0.1427
  312W        W 3077   8.358   0.729   6.211 -0.0416  0.0557  0.1167
  313W        W 3078   5.906   6.649   6.987  0.1418 -0.2915  0.1195
  314W        W 3079   2.939   5.533   7.012  0.4121  0.1175 -0.1399
  315W        W 3080   0.874   8.372   0.527  0.2890  0.1912 -0.4629
  316W        W 3081   7.048   6.830   6.463  0.1108 -0.1292  0.0880
  317W        W 3082   4.345   0.187   1.404  0.0944  0.0193 -0.3149
  318W        W 3083   2.845   3.270   7.098 -0.2222 -0.0720  0.0215
  319W        W 3084   0.649   1.606   5.877 -0.1768  0.1856  0.2022
  320W        W 3085   4.811   4.808   5.982  0.1195 -0.6035  0.0084
  321W        W 3086   3.183   2.885   6.270 -0.1337 -0.1300  0.1279
  322W        W 3087   0.949   2.246   5.652  0.3373  0.0116  0.2782
  323W        W 3088   6.115   5.595   2.092 -0.0953  0.1474  0.0023
  324W        W 3089   5.365   0.975   6.848 -0.1073  0.0786  0.1877
  325W        W 3090   8.379   8.535   0.950 -0.0818  0.4464 -0.1300
  326W        W 3091   4.869   5.829   0.311  0.1750  0.0683  0.2929
  327W        W 3092   2.586   3.084   0.373  0.0724 -0.1715 -0.0888
  328W        W 3093   7.737   5.817   0.622  0.0525 -0.0000  0.3605
  329W        W 3094   5.602   1.506   6.568  0.2677 -0.1683  0.0039
  330W        W 3095   4.315   3.838   6.694  0.3925  0.1199  0.0715
  331W        W 3096   1.513   7.051   0.632  0.0471 -0.0215  0.1450
  332W        W 3097   0.533   4.812   1.206  0.2691 -0.2011  0.2169
  333W        W 3098   6.584   7.862   5.857 -0.1737 -0.2100 -0.0275
  334W        W 3099   7.358   4.612   6.978  0.3370  0.2840 -0.3264
  335W        W 3100   2.322   4.153   5.735 -0.1042 -0.1162  0.0185
  336W        W 3101   0.519   1.092   5.825  0.0179  0.2043  0.2480
  337W        W 3102   9.104   2.207   5.727 -0.0396  0.0787  0.0926
  338W        W 3103   6.139   3.262   0.297  0.0440  0.1226  0.3333
  339W        W 3104   5.128   8.077   1.038 -0.0650 -0.3543  0.1672
  340W        W 3105   3.282   6.213   6.639 -0.0592 -0.2198  0.1086
  341W        W 3106   6.473   6.240   0.977 -0.0085 -0.1284 -0.0853
  342W        W 3107   8.239   3.282   6.588 -0.1483  0.0772 -0.0230
  343W        W 3108   8.204   7.793   6.923 -0.2782  0.0478 -0.0437
  344W        W 3109   5.056   4.581   6.918  0.3623 -0.0206  0.1389
  345W        W 3110   7.780   6.781   0.849 -0.1224  0.0574  0.3135
  346W        W 3111   2.652   0.743   0.795 -0.1470 -0.1107 -0.2265
  347W        W 3112   6.668   4.872   1.628 -0.1376  0.0217  0.0221
  348W        W 3113   8.460   2.159   0.320 -0.1116 -0.0833  0.2093
  349W        W 3114   2.011   5.272   6.065  0.1109 -0.3621 -0.3683
  350W        W 3115   1.244   7.436   0.839 -0.1730 -0.2243  0.1318
  351W        W 3116   6.393   1.734   6.617 -0.3020  0.0824  0.3384
  352W        W 3117   4.446   0.168   6.329 -0.0680 -0.2034  0.2660
  353W        W 3118   2.451   7.095   0.348  0.0890 -0.0183  0.2834
  354W        W 3119   5.429   4.213   1.138  0.2015  0.1300 -0.1205
  355W        W 3120   4.341   5.243   6.935  0.0811  0.4524  0.0751
  356W        W 3121   8.711   8.136   0.975  0.0448 -0.1924 -0.3104
  357W        W 3122   1.300   5.835   6.378 -0.1733  0.1045 -0.0672
  358W        W 3123   2.796   7.146   6.240  0.2984 -0.2777 -0.0018
  359W        W 3124   0.436   6.008   6.244 -0.1908  0.3403  0.1555
  360W        W 3125   8.562   1.870   6.211 -0.3278  0.2219 -0.1044
  361W        W 3126   2.202   5.900   1.947 -0.2635 -0.0226 -0.5274
  362W        W 3127   6.662   2.157   0.183 -0.0202 -0.1460  0.0750
  363W        W 3128   0.692   8.691   6.745  0.0784  0.0554  0.0218
  364W        W 3129   2.357   7.725   5.846 -0.2731 -0.0705  0.0797
  365W        W 3130   1.242   1.070   6.132 -0.1883  0.0473 -0.1811
  366W        W 3131   3.783   6.447   6.501 -0.2036  0.0265  0.0981
  367W        W 3132   7.619   1.097   0.480 -0.1312 -0.0333  0.0074
  368W        W 3133   1.253   2.287   5.266 -0.0893 -0.1829  0.0867
  369W        W 3134   4.381   3.665   1.761 -0.1508  0.0004  0.0571
  370W        W 3135   7.250   7.109   0.324 -0.2316  0.2297 -0.1746
  371W        W 3136   4.891   4.610   6.430  0.0794 -0.0619  0.0183
  372W        W 3137   3.912   8.242   1.932  0.4304 -0.0269  0.4300
  373W        W 3138   2.228   7.492   5.279 -0.1261  0.4659  0.0806
  374W        W 3139   2.738   8.048   5.864 -0.0481 -0.2335 -0.2615
  375W        W 3140   0.055   7.219   5.798 -0.1028 -0.0393  0.1686
  376W        W 3141   0.719   7.912   0.380  0.1544 -0.0739  0.1392
  377W        W 3142   0.867   0.540   6.929 -0.1076 -0.1612 -0.3075
  378W        W 3143   1.718   4.597   0.585 -0.1685  0.1022  0.0002
  379W        W 3144   2.401   0.140   5.732  0.0157 -0.2470 -0.2259
  380W        W 3145   6.636   7.689   1.938 -0.2161 -0.0254  0.3349
  381W        W 3146   3.493   1.748   2.287 -0.0793 -0.0772 -0.1827
  382W        W 3147   4.883   8.919   0.616 -0.3256  0.4174  0.0566
  383W        W 3148   8.945   1.065   7.018 -0.2999  0.0709 -0.3646
  384W        W 3149   2.026   5.268   6.595  0.0264 -0.1222  0.0938
  385W        W 3150   1.180   8.688   5.899 -0.1877  0.3542 -0.1370
  386W        W 3151   0.089   0.911   1.853  0.1216 -0.0346  0.0168
  387W        W 3152   0.394   3.116   6.989 -0.1968 -0.3162  0.1062
  388W        W 3153   6.268   4.305   0.477  0.1827  0.0848  0.1384
  389W        W 3154   7.100   8.470   1.349 -0.0913 -0.1023  0.2256
  390W        W 3155   2.034   7.120   7.026  0.1144 -0.0752  0.0540
  391W        W 3156   6.933   8.628   0.124 -0.1907  0.0018 -0.1395
  392W        W 3157   6.617   5.602   6.928 -0.2418  0.1275  0.0980
  393W        W 3158   0.292   0.750   0.526  0.1586 -0.2800 -0.0681
  394W        W 3159   6.649   2.490   0.617 -0.1081  0.2386 -0.0609
  395W        W 3160   6.708   5.250   5.943 -0.1574 -0.3343 -0.0406
  396W        W 3161   6.242   3.844   5.978 -0.1607  0.0774  0.3494
  397W        W 3162   8.621   0.969   0.414  0.0495  0.1030 -0.1508
  398W        W 3163   5.357   3.874   6.219  0.1629 -0.0515 -0.1545
  399W        W 3164   0.650   8.454   5.810  0.0961 -0.1168  0.1020
  400W        W 3165   5.405   4.319   5.859  0.1637  0.2072 -0.1815
  401W        W 3166   1.323   4.739   6.416 -0.0568  0.0247  0.1774
  402W        W 3167   5.403   6.962   0.606  0.0634  0.1934  0.0422
  403W        W 3168   1.512   2.988   0.032  0.1372 -0.0439 -0.0838
  404W        W 3169   6.320   3.362   6.411  0.2634 -0.0571  0.1195
  405W        W 3170   8.713   8.245   0.148 -0.2569 -0.0134  0.0625
  406W        W 3171   0.639   4.046   0.733  0.1037 -0.0704  0.3221
  407W        W 3172   1.462   7.822   1.125 -0.1644 -0.2355 -0.0219
  408W        W 3173   5.276   2.492   0.833 -0.2381 -0.1173  0.0773
  409W        W 3174   7.810   1.969   6.849  0.0550 -0.0309  0.0544
  410W        W 3175   5.657   9.089   6.041  0.0275  0.0400  0.0387
  411W        W 3176   0.717   1.985   5.200 -0.1362 -0.1319 -0.1050
  412W        W 3177   7.187   3.261   0.962 -0.2650  0.2170 -0.2349
  413W        W 3178   6.802   3.945   5.881 -0.1854 -0.2412 -0.0941
  414W        W 3179   0.621   1.087   5.300 -0.1154  0.0959  0.2390
  415W        W 3180   7.111   2.358   0.896  0.0756 -0.1513 -0.2492
  416W        W 3181   6.579   1.062   0.714  0.2131  0.2581  0.3904
  417W        W 3182   4.813   0.287   0.527 -0.0243 -0.1771  0.1981
  418W        W 3183   1.504   3.006   5.367  0.1027  0.2410 -0.1228
  419W        W 3184   2.511   2.901   7.009 -0.1045  0.0294 -0.1835
  420W        W 3185   6.269   1.300   5.906 -0.0510  0.1686 -0.2522
  421W        W 3186   1.586   0.000   0.625  0.0541  0.1389 -0.1687
  422W        W 3187   3.041   6.788   1.019 -0.0468 -0.1677 -0.1004
  423W        W 3188   8.715   7.793   5.711  0.0445 -0.2010  0.1014
  424W        W 3189   4.232   1.431   6.097 -0.2447 -0.1147 -0.0150
  425W        W 3190   2.112   3.797   6.247 -0.0193 -0.1575 -0.2721
  426W        W 3191   5.911   7.087   5.663  0.1496 -0.0882  0.0901
  427W        W 3192   5.297   0.143   0.305 -0.1848 -0.2537  0.0149
  428W        W 3193   4.011   2.036   0.171 -0.0163 -0.2854  0.0119
  429W        W 3194   1.691   5.724   6.601  0.0982 -0.0763  0.1165
  430W        W 3195   1.422   1.239   5.279 -0.2085  0.0810 -0.6693
  431W        W 3196   7.884   0.256   0.957 -0.1539  0.2562  0.2079
  432W        W 3197   0.042   8.684   0.692 -0.1587  0.2154  0.1857
  433W        W 3198   1.703   7.310   6.671 -0.0688  0.2982  0.2128
  434W        W 3199   2.690   4.624   6.510  0.0149  0.5298  0.3138
  435W        W 3200   1.805   1.215   6.367 -0.0511 -0.1286  0.0535
  436W        W 3201   0.275   4.746   6.629 -0.1356 -0.0671 -0.1089
  437W        W 3202   2.792   6.224   0.371  0.1112 -0.1694 -0.0828
  438W        W 3203   8.472   4.848   0.302 -0.0642  0.0435 -0.1971
  439W        W 3204   7.717   6.300   0.764  0.1962  0.2669  0.1899
  440W        W 3205   3.954   2.401   1.499  0.3401 -0.0821 -0.0001
  441W        W 3206   5.688   7.641   7.051  0.1618 -0.1965  0.1373
  442W        W 3207   7.373   0.660   0.366 -0.1928  0.3290 -0.0502
  443W        W 3208   8.787   7.247   0.257  0.2074 -0.2768  0.0810
  444W        W 3209   8.923   5.635   6.918 -0.1239 -0.1178  0.0546
  445W        W 3210   7.995   6.609   5.373  0.1878  0.0429 -0.2882
  446W        W 3211   6.962   3.758   1.018  0.1090 -0.1307  0.1285
  447W        W 3212   4.760   7.875   6.429  0.1384 -0.0009 -0.0821
  448W        W 3213   8.076   4.900   6.286 -0.2472  0.1181  0.1809
  449W        W 3214   5.741   8.068   1.360 -0.1528 -0.3247  0.0567
  450W        W 3215   8.184   3.334   5.707 -0.0828  0.0849  0.1260
  451W        W 3216   1.921   7.582   0.040 -0.1145  0.0728 -0.1746
  452W        W 3217   6.432   0.541   0.611 -0.1201 -0.1781 -0.3113
  453W        W 3218   0.790   7.312   6.588  0.2135 -0.1318 -0.1311
  454W        W 3219   8.948   4.958   0.607 -0.0970  0.1433  0.1521
  455W        W 3220   8.384   1.064   5.844  0.3066  0.0278  0.1896
  456W        W 3221   3.293   2.667   0.984 -0.0942 -0.2693  0.0810
  457W        W 3222   2.039   8.083   2.215 -0.1054  0.1400  0.3685
  458W        W 3223   8.561   4.135   5.390 -0.0916  0.0026 -0.0806
  459W        W 3224   4.334   2.898   0.709  0.3269 -0.1946 -0.1202
  460W        W 3225   1.643   3.378   0.318  0.1060  0.0032  0.2253
  461W        W 3226   7.352   4.071   1.101  0.3198  0.0761  0.2166
  462W        W 3227   6.060   1.077   1.939  0.1671  0.1441  0.2625
  463W        W 3228   4.473   4.132   1.940 -0.1615  0.2336  0.0882
  464W        W 3229   8.258   0.020   5.752  0.1108 -0.0939 -0.1505
  465W        W 3230   5.975   1.132   1.252  0.2922 -0.1628 -0.4265
  466W        W 3231   8.826   9.099   0.615  0.4276 -0.0621 -0.0972
  467W        W 3232   5.614   6.398   1.349  0.0301 -0.0007  0.0441
  468W        W 3233   1.468   6.728   5.122  0.0966  0.0478 -0.0436
  469W        W 3234   5.878   2.983   6.234 -0.0363 -0.0789 -0.1735
  470W        W 3235   0.797   6.110   0.344  0.0768  0.0036 -0.3454
  471W        W 3236   4.048   1.585   1.064 -0.0589  0.0487 -0.0439
  472W        W 3237   6.172   5.360   6.900 -0.1559  0.1601  0.1461
  473W        W 3238   7.313   0.912   6.496 -0.2260  0.1495  0.1700
  474W        W 3239   4.342   0.543   0.996  0.0955 -0.1842  0.2553
  475W        W 3240   4.172   2.652   1.159  0.0945 -0.0470 -0.1905
  476W        W 3241   5.322   1.059   0.208  0.2377  0.0039  0.3950
  477W        W 3242   8.815   0.242   1.550 -0.1993  0.1347 -0.0370
  478W        W 3243   2.719   6.087   2.020  0.0317 -0.1852 -0.0682
  479W        W 3244   1.489   8.700   5.485  0.0726 -0.1383 -0.2303
  480W        W 3245   1.775   6.716   0.910 -0.0355 -0.0710 -0.0042
  481W        W 3246   7.706   0.268   6.874  0.1608  0.0251  0.1970
  482W        W 3247   5.361   1.122   0.736  0.3071 -0.1706 -0.0296
  483W        W 3248   0.746   6.865   6.722 -0.1073 -0.1066  0.0036
  484W        W 3249   8.143   4.320   5.730  0.0603 -0.0508 -0.2438
  485W        W 3250   2.603   0.709   6.611 -0.0260  0.0976 -0.0368
  486W        W 3251   8.115   7.192   1.566  0.2829 -0.1147  0.0816
  487W        W 3252   7.129   0.276   1.340  0.0676 -0.1651 -0.1882
  488W        W 3253   2.721   1.977   6.784 -0.1405 -0.0110  0.0446
  489W        W 3254   4.725   1.689   0.522  0.2063 -0.1206 -0.3140
  490W        W 3255   0.633   1.085   0.456 -0.1054 -0.2726  0.0130
  491W        W 3256   7.531   4.745   6.321 -0.0128  0.0292  0.0077
  492W        W 3257   3.289   4.805   1.055  0.1088 -0.0567  0.0655
  493W        W 3258   3.048   1.681   6.527 -0.0407  0.0777  0.0667
  494W        W 3259   7.169   5.782   0.630 -0.2643  0.1961  0.1215
  495W        W 3260   3.938   7.025   6.559  0.3930  0.1314  0.0941
  496W        W 3261   3.832   1.784   0.625 -0.1575  0.0738 -0.0500
  497W        W 3262   5.209   6.298   1.059 -0.2367 -0.0579  0.1954
  498W        W 3263   3.635   6.909   6.138  0.1639 -0.1819 -0.0163
  499W        W 3264   2.011   6.255   1.574 -0.0867  0.0191 -0.2289
  500W        W 3265   0.123   5.546   5.973  0.0863  0.0149  0.0422
  501W        W 3266   1.021   7.775   6.451  0.1691 -0.0274  0.3583
  502W        W 3267   3.715   2.559   5.893  0.0111  0.0948  0.2521
  503W        W 3268   7.226   2.825   1.793  0.2689 -0.1257 -0.2463
  504W        W 3269   7.443   8.221   6.657 -0.0371  0.0722  0.0150
  505W        W 3270   5.709   0.218   1.123  0.1796  0.0998 -0.1130
  506W        W 3271   8.060   5.136   0.102  0.1670 -0.0936  0.0809
  507W        W 3272   1.490   4.899   0.181  0.0784  0.1134 -0.2507
  508W        W 3273   0.755   2.278   0.859  0.1412 -0.0889  0.3198
  509W        W 3274   6.270   8.888   1.739 -0.0331  0.1735  0.0681
  510W        W 3275   6.652   4.736   5.805 -0.1650  0.0929 -0.1906
  511W        W 3276   5.254   2.872   0.006 -0.1627  0.2415 -0.0484
  512W        W 3277   2.440   1.498   0.130 -0.1351  0.2028 -0.2625
  513W        W 3278   0.908   0.527   6.338  0.0545  0.0646  0.0618
  514W        W 3279   1.350   4.326   1.332 -0.2897  0.1616 -0.1936
  515W        W 3280   6.958   0.390   0.631 -0.1273  0.3589  0.0311
  516W        W 3281   6.827   8.750   1.006  0.1003  0.0342  0.1467
  517W        W 3282   2.582   6.701   0.771 -0.3143  0.2932  0.2839
  518W        W 3283   8.289   1.814   7.113 -0.0058  0.0777  0.1362
  519W        W 3284   6.262   6.234   6.288  0.1001 -0.2749  0.3048
  520W        W 3285   5.493   8.462   0.172 -0.1238 -0.1521  0.0215
  521W        W 3286   4.441   7.437   0.055 -0.1065 -0.0765 -0.0380
  522W        W 3287   9.127   5.138   6.752  0.2520  0.0958  0.0137
  523W        W 3288   6.442   7.014   0.534 -0.4265 -0.3732 -0.2919
  524W        W 3289   7.629   5.678   5.914  0.0124  0.3228  0.2164
  525W        W 3290   2.000   3.392   6.504  0.3805 -0.0318 -0.0740
  526W        W 3291   2.768   3.885   1.681  0.1393 -0.0259  0.2792
  527W        W 3292   7.879   0.942   5.828  0.3066  0.0819  0.0233
  528W        W 3293   8.289   5.890   0.460  0.0369  0.1228  0.1191
  529W        W 3294   5.440   5.522   5.893  0.1639 -0.0669 -0.0645
  530W        W 3295   2.961   5.085   0.171 -0.0701 -0.1324 -0.2385
  531W        W 3296   2.294   4.622   0.254 -0.3650 -0.1124  0.1916
  532W        W 3297   0.199   5.084   6.276  0.0377 -0.0552 -0.1690
  533W        W 3298   7.321   3.790   6.790  0.0652 -0.1751  0.1779
  534W        W 3299   4.089   4.360   1.697 -0.1524 -0.2105 -0.0479
  535W        W 3300   5.528   1.836   6.140  0.1428  0.0507 -0.1578
  536W        W 3301   2.480   8.621   1.519  0.1412  0.3504  0.1980
  537W        W 3302   8.986   5.291   0.903  0.1270  0.0237  0.1336
  538W        W 3303   6.064   5.487   0.644 -0.1671  0.0888  0.1137
  539W        W 3304   1.260   2.895   6.587 -0.0231  0.1704 -0.1542
  540W        W 3305   8.035   5.843   6.211 -0.1437  0.0938  0.1212
  541W        W 3306   8.070   2.342   0.599  0.2479 -0.0325  0.4167
  542W        W 3307   4.856   8.799   1.590  0.0797  0.2282 -0.0900
  543W        W 3308   3.399   0.912   0.214  0.1012  0.0116  0.0499
  544W        W 3309   4.370   5.628   0.889  0.1487  0.2325  0.0312
  545W        W 3310   6.891   1.471   0.774  0.3937 -0.0886 -0.2496
  546W        W 3311   7.773   8.082   1.247  0.0539  0.2153  0.0578
  547W        W 3312   0.645   4.091   0.177  0.0339  0.0769  0.0217
  548W        W 3313   7.999   5.843   6.704 -0.1420  0.1367  0.2098
  549W        W 3314   2.070   2.501   6.550  0.2325 -0.1198 -0.0696
  550W        W 3315   3.234   4.330   0.985  0.1079 -0.1241  0.1067
  551W        W 3316   7.166   8.618   6.444  0.0067  0.2038 -0.2978
  552W        W 3317   5.557   4.912   0.522 -0.1623  0.0152 -0.0989
  553W        W 3318   0.390   8.013   5.596 -0.0809 -0.1241 -0.0005
  554W        W 3319   4.531   2.403   6.020  0.1927  0.2464 -0.1914
  555W        W 3320   1.648   4.374   6.494 -0.0567 -0.1751 -0.1058
  556W        W 3321   1.612   2.581   0.237  0.0771  0.4578 -0.1208
  557W        W 3322   3.991   5.177   0.786 -0.0059 -0.0847 -0.1299
  558W        W 3323   5.331   3.365   0.979  0.0631 -0.1833  0.1882
  559W        W 3324   4.375   8.748   1.453 -0.0279  0.0616  0.0947
  560W        W 3325   7.059   5.761   1.753 -0.0614  0.1631  0.1725
  561W        W 3326   4.408   1.636   5.438 -0.0095  0.0610 -0.1011
  562W        W 3327   5.877   0.503   0.461  0.3724  0.0392 -0.0575
  563W        W 3328   1.496   1.691   0.528  0.0152 -0.1339  0.2223
  564W        W 3329   3.821   8.409   0.821  0.2809 -0.0198 -0.1378
  565W        W 3330   6.645   3.278   0.955 -0.2402 -0.1232  0.0377
  566W        W 3331   5.790   8.599   6.905 -0.2475  0.2614 -0.1547
  567W        W 3332   5.263   2.915   0.613  0.0819 -0.1983 -0.0031
  568W        W 3333   0.437   3.994   6.864  0.0517 -0.1917 -0.1292
  569W        W 3334   2.953   5.285   0.742  0.2784  0.3669  0.2795
  570W        W 3335   1.172   7.914   0.682  0.1775 -0.0284 -0.0007
  571W        W 3336   3.371   5.911   1.166 -0.1435  0.1572  0.0455
  572W        W 3337   2.194   7.898   6.329 -0.0629  0.3114  0.1598
  573W        W 3338   6.151   4.610   6.249  0.0622  0.3147  0.2988
  574W        W 3339   5.290   2.914   1.171  0.1084  0.0359  0.0717
  575W        W 3340   8.586   8.996   1.210 -0.1006  0.0916 -0.3854
  576W        W 3341   8.711   8.118   1.473  0.0824 -0.0644 -0.1752
  577W        W 3342   8.362   8.605   1.419  0.0906  0.1685  0.0861
  578W        W 3343   2.115   3.009   6.112  0.1373 -0.3099 -0.1764
  579W        W 3344   2.543   3.804   5.957 -0.0110  0.0856 -0.0153
  580W        W 3345   7.801   3.421   1.444  0.3393  0.1020 -0.2171
  581W        W 3346   3.806   6.359   7.029  0.0715 -0.1342  0.0703
  582W        W 3347   5.814   4.167   0.732 -0.0561 -0.1830 -0.0992
  583W        W 3348   6.906   2.882   0.884 -0.1245  0.0502 -0.0404
  584W        W 3349   2.503   2.557   0.339 -0.0868 -0.0086  0.1439
  585W        W 3350   8.298   1.691   1.059  0.2619  0.2286  0.3069
  586W        W 3351   2.418   7.682   0.206 -0.2518 -0.1222  0.1527
  587W        W 3352   2.818   1.155   0.298  0.0598  0.2225 -0.1050
  588W        W 3353   0.815   5.387   0.816  0.2955 -0.0206  0.3052
  589W        W 3354   1.193   1.408   0.854  0.1028  0.1073  0.2835
  590W        W 3355   1.320   6.971   6.585  0.0689 -0.3896 -0.0435
  591W        W 3356   0.828   1.396   6.293 -0.2785 -0.0055  0.0272
  592W        W 3357   8.623   4.876   5.461 -0.1081  0.1165 -0.1439
  593W        W 3358   0.793   3.491   0.885  0.0467  0.0537 -0.1626
  594W        W 3359   4.017   8.831   0.090  0.3012 -0.1285  0.2365
  595W        W 3360   3.797   0.997   6.002 -0.2352  0.1365  0.1184
  596W        W 3361   7.077   0.006   6.316 -0.0945 -0.0584 -0.3550
  597W        W 3362   1.704   3.493   4.960 -0.1184  0.0252 -0.3004
  598W        W 3363   4.157   5.228   0.306 -0.1934 -0.0256  0.1797
  599W        W 3364   0.344   0.877   0.056 -0.0179 -0.1305 -0.1343
  600W        W 3365   6.310   6.268   0.194  0.1327  0.5122 -0.1167
  601W        W 3366   3.440   5.066   7.074  0.1707  0.1513  0.1803
  602W        W 3367   8.206   0.246   0.421 -0.2748  0.0912 -0.0242
  603W        W 3368   1.740   8.705   0.927  0.0111  0.1609 -0.1564
  604W        W 3369   7.310   1.775   6.224  0.2515  0.0641  0.2102
  605W        W 3370   4.647   4.580   0.797  0.0684  0.2230  0.2109
  606W        W 3371   7.682   6.185   5.971 -0.0591 -0.0927  0.0964
  607W        W 3372   6.730   6.611   0.693  0.2932 -0.1694  0.0708
  608W        W 3373   1.797   1.620   1.070 -0.0271  0.0474 -0.1503
  609W        W 3374   4.957   3.533   5.943 -0.0141  0.0436  0.1530
  610W        W 3375   9.140   3.076   0.305  0.1250 -0.2491  0.3602
  611W        W 3376   3.686   8.267   6.708  0.4389 -0.1342  0.2632
  612W        W 3377   5.362   5.538   1.333 -0.2242  0.0846  0.0023
  613W        W 3378   0.564   6.648   6.247 -0.2496 -0.0624 -0.3256
  614W        W 3379   5.820   3.676   6.359  0.0647 -0.1335 -0.5615
  615W        W 3380   5.644   7.320   0.843  0.3882  0.1407  0.0937
  616W        W 3381   6.182   0.137   0.341  0.1988  0.0087 -0.0584
  617W        W 3382   5.868   2.206   5.593  0.0127 -0.0531  0.1923
  618W        W 3383   2.113   5.893   0.644  0.0621  0.1277  0.0043
  619W        W 3384   2.932   8.892   0.507  0.0077 -0.2289  0.0261
  620W        W 3385   2.612   0.102   0.819  0.0928 -0.0232 -0.4092
  621W        W 3386   2.007   6.359   5.791  0.0227 -0.0950  0.0218
  622W        W 3387   5.975   4.706   0.422  0.2670 -0.0488 -0.2140
  623W        W 3388   0.263   4.230   0.461  0.0821  0.1019  0.0634
  624W        W 3389   2.089   0.864   0.806  0.1591 -0.2356  0.0724
  625W        W 3390   2.837   7.576   5.844 -0.1186  0.2123 -0.0045
  626W        W 3391   8.148   1.184   5.063  0.4016  0.1351 -0.1394
  627W        W 3392   1.238   9.016   6.953 -0.2040 -0.0183  0.0891
  628W        W 3393   0.971   2.755   4.803 -0.0092  0.1448  0.0944
  629W        W 3394   3.652   4.025   1.078 -0.1270 -0.1600 -0.0965
  630W        W 3395   7.592   4.934   1.692  0.2290  0.2238 -0.1904
  631W        W 3396   8.944   2.967   0.723  0.2077  0.3798  0.1853
  632W        W 3397   0.833   5.328   5.767 -0.2229  0.0668  0.0453
  633W        W 3398   2.645   0.441   6.173 -0.1773 -0.1925  0.4795
  634W        W 3399   1.310   0.413   1.082 -0.0649 -0.2044 -0.0787
  635W        W 3400   8.065   6.827   6.601 -0.0137  0.0048 -0.2902
  636W        W 3401   1.253   2.217   1.769  0.1762  0.2054  0.2947
  637W        W 3402   0.910   2.115   6.925 -0.0202 -0.0429  0.1714
  638W        W 3403   8.636   4.234   6.708  0.0946 -0.0738 -0.1629
  639W        W 3404   3.482   4.937   6.639  0.0667  0.0655 -0.1775
  640W        W 3405   7.734   1.685   6.410 -0.0268 -0.1158  0.2379
  641W        W 3406   9.075   5.287   5.586  0.1192 -0.2553 -0.1366
  642W        W 3407   8.845   4.232   6.234  0.0707  0.1090  0.2347
  643W        W 3408   2.261   0.711   1.335 -0.1248  0.2233  0.2019
  644W        W 3409   5.577   5.370   6.342 -0.2255 -0.0135 -0.0694
  645W        W 3410   5.854   7.602   6.563  0.1501 -0.1002 -0.0950
  646W        W 3411   6.543   9.103   5.613 -0.0229  0.0184 -0.0086
  647W        W 3412   0.325   0.383   0.174  0.0917 -0.1988  0.1764
  648W        W 3413   7.738   3.103   5.440 -0.0031  0.1653  0.2267
  649W        W 3414   3.302   7.636   5.654  0.0097  0.1652 -0.3532
  650W        W 3415   4.831   6.355   0.597  0.2796 -0.1849  0.1111
  651W        W 3416   0.564   8.795   0.358  0.0461 -0.0021 -0.1443
  652W        W 3417   5.251   8.009   7.112 -0.0654 -0.0938  0.0930
  653W        W 3418   0.547   2.640   0.294 -0.1065 -0.2352  0.1255
  654W        W 3419   4.241   7.411   0.715  0.0102 -0.3930 -0.0730
  655W        W 3420   6.297   0.342   5.696  0.2899 -0.1750  0.0082
  656W        W 3421   0.514   4.456   5.161  0.1219 -0.0878  0.2299
  657W        W 3422   6.564   6.896   6.757 -0.1280  0.0005 -0.1046
  658W        W 3423   6.873   6.545   1.147 -0.0480 -0.1742  0.1056
  659W        W 3424   4.934   1.276   6.595 -0.1884 -0.2253 -0.0558
  660W        W 3425   8.795   6.472   6.321 -0.0942 -0.2243 -0.0545
  661W        W 3426   4.524   4.999   1.038 -0.0288  0.2895  0.0401
  662W        W 3427   8.536   3.324   6.163 -0.1843 -0.0092 -0.2354
  663W        W 3428   2.579   5.928   1.544 -0.1052  0.3061 -0.1876
  664W        W 3429   7.788   5.963   5.485 -0.1759  0.0654 -0.3688
  665W        W 3430   6.421   3.485   6.947  0.0695  0.1154 -0.0649
  666W        W 3431   4.518   2.331   0.952  0.0764  0.0970 -0.0120
  667W        W 3432   8.584   5.325   5.691 -0.1362 -0.0565 -0.2282
  668W        W 3433   7.331   9.083   6.845  0.1103 -0.0295 -0.0782
  669W        W 3434   7.440   5.702   0.170 -0.1378 -0.0960 -0.4198
  670W        W 3435   6.587   7.828   0.970 -0.0388 -0.0516  0.0542
  671W        W 3436   4.790   6.722   0.978 -0.1077 -0.2327 -0.3661
  672W        W 3437   1.560   7.195   0.015  0.0538  0.0408 -0.3325
  673W        W 3438   2.465   3.403   6.242  0.1139  0.0198 -0.2279
  674W        W 3439   4.671   4.412   0.079  0.0979 -0.0753  0.3866
  675W        W 3440   1.793   2.569   5.885 -0.2307 -0.1036  0.2552
  676W        W 3441   1.283   1.936   0.132  0.1265 -0.0372  0.0971
  677W        W 3442   8.887   5.317   1.441 -0.0733  0.3448  0.0596
  678W        W 3443   8.527   4.762   0.883 -0.1392 -0.0383 -0.0159
  679W        W 3444   2.300   3.296   5.769 -0.0307  0.4692  0.0245
  680W        W 3445   0.768   9.012   5.798  0.1088 -0.1765  0.0907
  681W        W 3446   4.519   7.722   0.460  0.0340  0.0917 -0.2657
  682W        W 3447   3.537   0.096   6.373  0.1675 -0.0338 -0.1848
  683W        W 3448   4.113   3.684   0.339 -0.0341 -0.3737 -0.1715
  684W        W 3449   0.270   0.942   4.885  0.1848  0.0017 -0.3171
  685W        W 3450   3.848   5.875   5.827  0.1716 -0.0763  0.0666
  686W        W 3451   3.201   7.639   7.003 -0.0254 -0.0426  0.1844
  687W        W 3452   2.403   5.392   0.078 -0.0452  0.1988  0.2448
  688W        W 3453   8.087   5.556   0.889 -0.2907 -0.2232 -0.0096
  689W        W 3454   1.704   0.775   0.277  0.0561 -0.1632 -0.2896
  690W        W 3455   3.090   0.797   5.418  0.0054  0.2076  0.4902
  691W        W 3456   2.274   4.705   1.335  0.2798 -0.1370  0.1831
  692W        W 3457   1.277   8.994   4.890  0.0430  0.1659 -0.2378
  693W        W 3458   5.834   4.610   5.847 -0.1728 -0.0338  0.3315
  694W        W 3459   8.033   4.168   5.168  0.2892 -0.0087 -0.2441
  695W        W 3460   3.837   4.050   0.565  0.5341  0.2691 -0.0348
  696W        W 3461   3.915   8.998   1.417  0.3555 -0.0193  0.0511
  697W        W 3462   2.240   7.067   6.479 -0.2002 -0.0827  0.1494
  698W        W 3463   8.582   0.407   5.174 -0.2382 -0.0040 -0.0982
  699W        W 3464   7.856   4.679   0.034  0.2292  0.1107 -0.1758
  700W        W 3465   3.534   0.512   5.772  0.2137  0.1225 -0.1244
  701W        W 3466   8.136   5.361   6.713  0.0921 -0.2860 -0.3250
  702W        W 3467   1.835   3.775   0.579 -0.0278  0.3109 -0.2219
  703W        W 3468   2.035   8.221   5.957 -0.4707 -0.0067 -0.1121
  704W        W 3469   0.415   2.025   5.641 -0.1908 -0.1724  0.0496
  705W        W 3470   7.544   1.128   1.309  0.2231 -0.2379  0.3855
  706W        W 3471   6.079   6.313   1.315 -0.0148  0.2074 -0.1091
  707W        W 3472   0.649   5.411   6.250 -0.1847 -0.0680 -0.3586
  708W        W 3473   2.536   4.534   0.700 -0.1117 -0.1482 -0.0927
  709W        W 3474   9.106   0.025   1.931  0.1455 -0.3867  0.0318
  710W        W 3475   7.985   7.121   5.155  0.1633  0.1357 -0.2172
  711W        W 3476   8.729   8.119   6.649 -0.2222 -0.0762 -0.1173
  712W        W 3477   8.417   0.791   4.919  0.1641 -0.0007 -0.0293
  713W        W 3478   4.479   6.613   0.179 -0.2480 -0.2924 -0.1743
  714W        W 3479   4.784   1.643   2.397 -0.0748  0.0049  0.0621
  715W        W 3480   0.813   7.955   1.607 -0.1217 -0.0794  0.0626
  716W        W 3481   4.637   8.179   0.196 -0.1158 -0.0819  0.1615
  717W        W 3482   3.114   3.818   0.011  0.1220 -0.2534  0.0969
  718W        W 3483   4.177   3.077   5.317 -0.0595 -0.1247 -0.1459
  719W        W 3484   0.955   7.239   5.838 -0.0696  0.0932 -0.3441
  720W        W 3485   7.735   2.083   5.621  0.0654  0.1821  0.2015
  721W        W 3486   8.245   0.683   0.724 -0.3022 -0.1976 -0.0844
  722W        W 3487   0.562   3.015   5.524  0.2112 -0.0056  0.0534
  723W        W 3488   1.856   4.392   5.573  0.0713 -0.1375  0.0831
  724W        W 3489   1.658   4.914   6.778  0.0273 -0.0227  0.2271
  725W        W 3490   8.815   2.629   5.715  0.2553 -0.2779  0.1198
  726W        W 3491   8.641   3.095   5.705  0.1835  0.1802 -0.1898
  727W        W 3492   8.644   3.139   0.277  0.2534 -0.0105 -0.1363
  728W        W 3493   0.245   8.653   6.512  0.1526 -0.2034  0.1188
  729W        W 3494   8.355   5.327   6.186  0.0569  0.2926 -0.0529
  730W        W 3495   3.970   6.150   0.362 -0.0949 -0.4094  0.0009
  731W        W 3496   6.202   0.103   6.272  0.0379 -0.0229  0.2329
  732W        W 3497   5.835   3.240   1.160  0.0622 -0.1704  0.1208
  733W        W 3498   2.534   8.838   0.053 -0.1889  0.5680 -0.4325
  734W        W 3499   3.988   3.334   0.014  0.0620  0.0937 -0.1173
  735W        W 3500   2.642   3.880   6.938  0.3327 -0.1686  0.0767
  736W        W 3501   8.826   0.856   5.937  0.1209 -0.0594 -0.0989
  737W        W 3502   1.798   2.094   0.821  0.0471  0.0905 -0.1099
  738W        W 3503   8.626   8.327   5.719  0.3979  0.2207 -0.3931
  739W        W 3504   1.315   8.474   4.925 -0.2527 -0.2464 -0.0061
  740W        W 3505   1.822   5.592   0.864  0.1454 -0.1362 -0.3019
  741W        W 3506   0.475   8.191   4.379 -0.1313 -0.0669 -0.1884
  742W        W 3507   6.740   6.055   0.035 -0.1996  0.0462  0.3943
  743W        W 3508   1.620   2.297   6.350  0.2330 -0.1850 -0.0179
  744W        W 3509   7.754   4.094   6.896  0.1643  0.2529 -0.4817
  745W        W 3510   0.016   7.394   1.350 -0.0989  0.0229 -0.0478
  746W        W 3511   0.511   1.575   0.606 -0.2007  0.0004 -0.0825
  747W        W 3512   8.086   6.318   6.733  0.3065 -0.2694  0.0515
  748W        W 3513   6.385   4.179   1.021 -0.1435 -0.0370  0.4254
  749W        W 3514   7.185   7.438   0.015  0.0036 -0.0700  0.3150
  750W        W 3515   5.861   1.828   0.268  0.2322 -0.0092  0.3252
  751W        W 3516   7.229   0.760   1.070  0.0757  0.2083 -0.2678
  752W        W 3517   5.149   3.762   1.267 -0.0169 -0.4065  0.1342
  753W        W 3518   7.477   6.189   6.969  0.1461  0.1840 -0.1323
  754W        W 3519   0.815   7.936   5.473 -0.0352 -0.2728  0.0059
  755W        W 3520   2.854   6.861   6.639 -0.2559 -0.2058  0.0299
  756W        W 3521   6.129   8.929   7.054 -0.0607  0.0677  0.1597
  757W        W 3522   0.017   6.702   5.798  0.1998  0.0816 -0.4342
  758W        W 3523   3.314   4.723   0.262  0.2196 -0.1371 -0.3680
  759W        W 3524   5.726   5.365   0.205  0.3286 -0.0592 -0.2462
  760W        W 3525   7.804   2.481   6.213  0.1777  0.1332 -0.2102
  761W        W 3526   6.137   1.453   0.221 -0.0902  0.1293  0.2505
  762W        W 3527   4.764   7.273   5.663 -0.2644  0.0737 -0.1114
  763W        W 3528   4.936   5.160   1.748 -0.2044  0.1899  0.4677
  764W        W 3529   7.117   7.046   5.919 -0.0298  0.0395  0.0288
  765W        W 3530   3.427   4.430   6.522 -0.1267 -0.1098  0.0778
  766W        W 3531   7.599   3.386   5.832 -0.1126  0.1495 -0.1479
  767W        W 3532   6.920   7.681   6.266  0.0952 -0.0629 -0.3707
  768W        W 3533   1.114   4.157   7.108  0.1053 -0.0604 -0.0463
  769W        W 3534   5.040   1.377   7.073  0.0829  0.2888 -0.3308
  770W        W 3535   7.617   7.106   7.057 -0.0247 -0.1809 -0.1463
  771W        W 3536   3.007   5.866   0.796  0.0684 -0.3123 -0.1051
  772W        W 3537   8.495   4.022   5.893 -0.0327 -0.1678 -0.3479
  773W        W 3538   0.120   7.344   0.275  0.0145 -0.1609  0.0777
  774W        W 3539   6.778   5.244   6.637 -0.0205 -0.4128 -0.2079
  775W        W 3540   0.092   2.641   5.977 -0.0641  0.0220  0.0761
  776W        W 3541   8.114   3.209   0.374  0.1487  0.2461  0.3814
  777W        W 3542   0.791   0.649   0.275  0.0994 -0.1281 -0.1763
  778W        W 3543   3.853   7.408   5.873  0.1955 -0.0005  0.0821
  779W        W 3544   1.923   6.212   6.687 -0.0505 -0.0644  0.0644
  780W        W 3545   0.536   7.467   5.658  0.0480  0.2310  0.3280
  781W        W 3546   7.630   5.444   0.972 -0.1431 -0.0236 -0.0207
  782W        W 3547   8.658   7.922   6.205  0.0853 -0.0825  0.1177
  783W        W 3548   1.854   8.048   1.369 -0.0716  0.2149  0.0678
  784W        W 3549   8.658   7.604   6.727  0.0392  0.1077  0.0090
  785W        W 3550   7.735   3.383   6.592 -0.1620 -0.0025  0.3395
  786W        W 3551   4.787   8.605   6.055 -0.4610  0.2323 -0.0655
  787W        W 3552   5.572   5.910   6.375 -0.0185 -0.1600 -0.2231
  788W        W 3553   5.924   6.492   6.015 -0.0880 -0.0781  0.0067
  789W        W 3554   2.319   8.818   1.002  0.0657 -0.1792  0.2449
  790W        W 3555   3.799   4.386   1.318 -0.2291 -0.0382  0.1217
  791W        W 3556   7.238   0.987   0.076 -0.0195 -0.4299  0.4182
  792W        W 3557   2.051   7.767   1.775 -0.1494 -0.2100  0.3436
  793W        W 3558   1.974   8.065   0.344 -0.2514 -0.3293 -0.1261
  794W        W 3559   1.125   0.518   1.911  0.0599  0.0725 -0.1856
  795W        W 3560   7.406   3.051   1.349  0.0022 -0.2027  0.1689
  796W        W 3561   2.213   1.554   6.315 -0.0306  0.1007  0.1836
  797W        W 3562   7.713   8.184   7.068 -0.1491  0.1078 -0.1069
  798W        W 3563   5.125   1.731   6.388  0.1437 -0.0997  0.1769
  799W        W 3564   1.111   2.705   0.352 -0.0392  0.2276  0.0215
  800W        W 3565   3.145   0.298   6.107  0.1898  0.0347  0.0432
  801W        W 3566   3.248   4.275   6.061 -0.2686 -0.2320 -0.0850
  802W        W 3567   1.275   8.967   0.952  0.4107 -0.2099  0.2853
  803W        W 3568   7.759   5.112   5.867 -0.1616 -0.1325  0.1914
  804W        W 3569   1.109   8.085   5.083  0.0843  0.3320  0.2905
  805W        W 3570   0.664   0.243   5.421  0.0199 -0.3110 -0.1517
  806W        W 3571   0.846   2.750   6.369 -0.2457 -0.1177 -0.2735
  807W        W 3572   8.387   6.343   0.504 -0.1817 -0.1768  0.0555
  808W        W 3573   4.040   7.057   1.004 -0.1538  0.1198  0.0333
  809W        W 3574   4.746   5.282   0.268  0.0207  0.1591 -0.1955
  810W        W 3575   0.273   0.039   1.422  0.3263 -0.0385 -0.0418
  811W        W 3576   7.073   4.887   5.967 -0.1629 -0.1148  0.1408
  812W        W 3577   8.651   3.756   1.160  0.2152 -0.0254  0.0049
  813W        W 3578   2.619   9.058   6.228  0.3726 -0.1214  0.0464
  814W        W 3579   6.364   2.150   5.698 -0.1039  0.3134  0.0941
  815W        W 3580   9.008   4.059   7.057  0.0233  0.0417  0.0006
  816W        W 3581   3.714   5.937   6.637  0.3458  0.0681  0.1339
  817W        W 3582   0.130   0.918   1.294  0.2428 -0.0363 -0.0699
  818W        W 3583   4.527   7.152   0.995 -0.2162 -0.1718  0.0536
  819W        W 3584   3.395   5.135   6.073 -0.1050 -0.1089 -0.0278
  820W        W 3585   5.005   0.958   5.925  0.0177 -0.0256 -0.1304
  821W        W 3586   6.572   4.909   6.366 -0.3006  0.1164 -0.2692
  822W        W 3587   4.823   0.424   1.068  0.2893  0.0329 -0.0886
  823W        W 3588   0.633   7.851   5.982 -0.1322 -0.1213  0.1847
  824W        W 3589   5.434   2.843   5.932  0.0397 -0.1045 -0.0464
  825W        W 3590   1.215   8.741   1.445 -0.1276  0.2767  0.0094
  826W        W 3591   4.484   1.509   7.030 -0.0210 -0.2008  0.2997
  827W        W 3592   0.966   7.229   1.185  0.2481  0.2470  0.1407
  828W        W 3593   2.638   6.638   6.239 -0.1307  0.0413  0.0068
  829W        W 3594   6.481   3.028   7.108 -0.0041  0.2569 -0.1062
  830W        W 3595   4.207   1.036   0.091 -0.4044 -0.0464  0.1409
  831W        W 3596   2.148   8.012   6.808 -0.1563  0.3517  0.0816
  832W        W 3597   3.657   6.223   5.438 -0.0499  0.2707  0.2318
  833W        W 3598   5.066   0.801   2.164  0.1137 -0.1353  0.1839
  834W        W 3599   2.639   1.822   6.317 -0.1280 -0.1204 -0.1395
  835W        W 3600   9.130   0.631   6.857 -0.0101  0.2567 -0.1035
  836W        W 3601   3.002   2.221   0.988  0.3258 -0.1975  0.0164
  837W        W 3602   5.971   3.063   5.538  0.0589 -0.2116  0.3333
  838W        W 3603   8.358   3.879   6.907  0.1330  0.1525  0.1263
  839W        W 3604   4.591   3.382   6.337 -0.1670 -0.0189  0.0688
  840W        W 3605   3.441   1.816   1.029  0.1806 -0.0990  0.0775
  841W        W 3606   7.096   6.523   5.889  0.4104  0.0786 -0.3637
  842W        W 3607   0.445   7.024   0.534  0.1998  0.0619 -0.0395
  843W        W 3608   1.163   2.371   6.538 -0.1897  0.2880  0.3056
  844W        W 3609   5.426   8.488   1.382  0.2407  0.4021  0.0290
  845W        W 3610   2.976   4.147   6.640 -0.2899  0.1574  0.0508
  846W        W 3611   3.033   5.244   5.769  0.1977  0.1512 -0.1786
  847W        W 3612   6.463   1.057   7.002 -0.3241  0.2501  0.0988
  848W        W 3613   5.177   8.852   6.424  0.1222  0.0939  0.0868
  849W        W 3614   1.198   2.506   7.008 -0.2524  0.0102  0.1511
  850W        W 3615   3.147   3.384   0.680  0.1073 -0.1993  0.0278
  851W        W 3616   1.473   8.373   1.139  0.2250 -0.0730  0.1994
  852W        W 3617   9.082   7.792   1.020  0.0633  0.0420 -0.1888
  853W        W 3618   6.450   5.792   6.002  0.2827 -0.1981  0.2046
  854W        W 3619   7.259   0.670   5.520 -0.3531  0.0241  0.3117
  855W        W 3620   3.150   7.165   0.631 -0.0711  0.2119  0.0185
  856W        W 3621   5.735   3.636   0.505  0.1256 -0.0888 -0.0119
  857W        W 3622   0.783   0.012   4.966  0.0318 -0.0501  0.0854
  858W        W 3623   1.217   7.346   6.259 -0.1970  0.2632 -0.0462
  859W        W 3624   5.340   1.850   6.861 -0.2268  0.0466  0.0031
  860W        W 3625   5.761   6.005   0.837  0.0653 -0.0394 -0.1288
  861W        W 3626   2.452   4.266   1.133  0.0388  0.0980  0.0534
  862W        W 3627   6.108   8.489   1.390 -0.0794 -0.1054 -0.1712
  863W        W 3628   1.300   1.366   6.571 -0.0238  0.1373 -0.1887
  864W        W 3629   4.766   2.132   6.448  0.0188 -0.2558 -0.3588
  865W        W 3630   1.676   4.078   6.921 -0.2067 -0.2377  0.1706
  866W        W 3631   5.522   0.512   6.664  0.0241 -0.1613 -0.3037
  867W        W 3632   4.737   7.635   0.878 -0.0731 -0.1535  0.1550
  868W        W 3633   2.814   2.310   0.027 -0.0344  0.1496 -0.1459
  869W        W 3634   8.921   3.371   6.571  0.2001 -0.1755 -0.3509
  870W        W 3635   7.071   5.658   5.115 -0.1702 -0.1125 -0.0605
  871W        W 3636   1.447   3.064   5.901 -0.3210  0.1242 -0.0030
  872W        W 3637   4.795   4.759   1.426  0.1107 -0.3063  0.0530
  873W        W 3638   5.050   8.581   1.065  0.0666 -0.2025 -0.0516
  874W        W 3639   0.256   0.070   5.130 -0.0345 -0.0536  0.0369
  875W        W 3640   2.631   1.731   0.565 -0.1606 -0.4416 -0.1572
  876W        W 3641   4.508   1.886   6.104  0.5426  0.1515 -0.1549
  877W        W 3642   5.168   8.236   5.252  0.0211 -0.1220  0.3543
  878W        W 3643   2.131   2.987   6.667 -0.0999 -0.1753 -0.3782
  879W        W 3644   3.443   0.504   6.986 -0.0934 -0.1123 -0.0205
  880W        W 3645   4.059   0.274   6.618  0.1230  0.1490 -0.2968
  881W        W 3646   2.213   0.235   6.318  0.0664 -0.4196  0.0047
  882W        W 3647   2.906   0.761   7.004 -0.1196  0.0286  0.1029
  883W        W 3648   6.249   4.483   7.094 -0.2073  0.0100 -0.3478
  884W        W 3649   7.507   5.941   1.073  0.1337 -0.0869 -0.2071
  885W        W 3650   1.756   6.301   0.598 -0.0237  0.1577 -0.0183
  886W        W 3651   8.098   0.797   1.159 -0.1933 -0.2363  0.2740
  887W        W 3652   3.060   4.267   0.338 -0.0831 -0.3297  0.0941
  888W        W 3653   5.065   8.230   5.879  0.2935  0.0847 -0.4484
  889W        W 3654   1.414   4.083   5.398  0.0778  0.1454  0.1190
  890W        W 3655   6.181   7.618   1.771  0.0423 -0.1300 -0.2096
  891W        W 3656   0.332   1.419   1.189  0.4813  0.0430 -0.2396
  892W        W 3657   6.966   9.031   0.523 -0.1654  0.0113 -0.3109
  893W        W 3658   4.047   2.096   5.263 -0.3789 -0.2235  0.2221
  894W        W 3659   6.352   0.785   1.319  0.1257 -0.3676  0.3384
  895W        W 3660   3.284   2.763   5.776 -0.1173  0.2522 -0.0561
  896W        W 3661   1.656   0.439   5.649  0.4391 -0.0539  0.2953
  897W        W 3662   3.637   7.388   0.604  0.2723 -0.0740 -0.2801
  898W        W 3663   6.870   5.602   6.326 -0.1828  0.1027  0.0420
  899W        W 3664   5.774   1.958   6.696  0.1353 -0.1355  0.1044
  900W        W 3665   2.167   1.615   1.528  0.1711 -0.0489 -0.1982
  901W        W 3666   2.970   8.424   0.375  0.2923 -0.0044 -0.0978
  902W        W 3667   3.189   3.747   1.003 -0.2019 -0.0411 -0.0711
  903W        W 3668   7.704   0.781   0.820 -0.1295  0.0681  0.1293
  904W        W 3669   4.916   4.082   6.738  0.1444 -0.0277  0.2128
  905W        W 3670   4.312   7.001   5.577  0.0308 -0.1427 -0.0520
  906W        W 3671   7.489   0.113   2.218 -0.3112 -0.2243  0.1192
  907W        W 3672   4.090   2.781   0.168  0.1206  0.0257  0.3650
  908W        W 3673   8.333   5.310   0.500  0.1764  0.1954  0.0016
  909W        W 3674   0.338   6.559   6.863  0.1279 -0.1898 -0.1371
  910W        W 3675   3.324   3.094   0.316 -0.0098 -0.0762  0.3028
  911W        W 3676   1.243   6.913   5.537  0.0841  0.3744 -0.0583
  912W        W 3677   1.044   5.788   0.001  0.3174  0.2517 -0.1963
  913W        W 3678   7.053   6.943   6.946 -0.1126  0.1035  0.1241
  914W        W 3679   3.666   2.423   5.393  0.3410 -0.2499  0.1344
  915W        W 3680   7.381   3.298   6.950 -0.0361 -0.0078 -0.2832
  916W        W 3681   5.182   5.115   5.607 -0.0172  0.2202 -0.0710
  917W        W 3682   6.531   3.451   5.933 -0.2230  0.0094 -0.1072
  918W        W 3683   7.754   6.463   6.404 -0.1709 -0.2485 -0.0165
  919W        W 3684   6.209   5.826   1.173  0.4283 -0.2675 -0.0208
  920W        W 3685   2.113   2.015   1.236  0.0930  0.1933 -0.3833
  921W        W 3686   0.827   4.484   0.909  0.0378  0.1502  0.3476
  922W        W 3687   4.786   8.346   1.452 -0.2624  0.3483 -0.2505
  923W        W 3688   5.780   8.123   7.039  0.1782 -0.2368  0.0874
  924W        W 3689   2.321   8.813   5.851  0.2885  0.0020  0.1693
  925W        W 3690   4.227   1.195   6.756 -0.1588  0.0679  0.1417
  926W        W 3691   1.359   5.373   0.888  0.2157  0.2028 -0.1175
  927W        W 3692   7.504   5.984   6.384 -0.0769  0.0512  0.1604
  928W        W 3693   7.953   0.222   6.370  0.1487  0.0280 -0.1578
  929W        W 3694   3.136   1.957   6.156  0.1225  0.3633  0.3056
  930W        W 3695   8.682   6.943   6.031  0.0019  0.2569  0.2720
  931W        W 3696   1.104   1.078   0.462  0.4138 -0.1922  0.0222
  932W        W 3697   2.781   4.625   1.157  0.0539  0.1623 -0.3118
  933W        W 3698   6.583   6.023   1.494  0.0406  0.5657 -0.0716
  934W        W 3699   8.242   1.147   6.431 -0.0159  0.0691  0.1729
  935W        W 3700   4.834   9.098   1.212 -0.2431  0.1531  0.3630
  936W        W 3701   5.715   7.018   6.644 -0.3739  0.0780 -0.0123
  937W        W 3702   2.453   8.022   0.609 -0.2007 -0.1981  0.4461
  938W        W 3703   2.081   4.103   0.289 -0.1988  0.2025  0.2779
  939W        W 3704   6.104   0.198   1.504 -0.1326 -0.1288  0.2256
  940W        W 3705   2.686   5.318   6.115 -0.0941  0.1251  0.1518
  941W        W 3706   1.803   3.736   0.069 -0.3437  0.2676 -0.2934
  942W        W 3707   8.903   4.538   0.068 -0.1244  0.3993 -0.3484
  943W        W 3708   5.110   8.229   6.398 -0.2209  0.1145  0.4307
  944W        W 3709   5.038   8.517   0.183 -0.1159 -0.1508  0.0635
  945W        W 3710   3.578   6.212   0.764  0.2591 -0.0839  0.2649
  946W        W 3711   6.305   1.994   1.469 -0.0807  0.1411  0.0243
  947W        W 3712   0.510   3.098   1.226 -0.0331  0.3307 -0.4039
  948W        W 3713   0.215   0.395   6.301  0.1371  0.1126  0.1063
  949W        W 3714   7.632   1.201   6.123 -0.0345 -0.5528  0.2107
  950W        W 3715   1.048   0.379   5.676  0.0326  0.2237 -0.0667
  951W        W 3716   3.523   7.328   6.659 -0.0366 -0.1897 -0.3313
  952W        W 3717   3.103   1.014   0.686  0.0338  0.2924  0.1818
  953W        W 3718   3.429   3.137   1.061  0.1986  0.2109 -0.1009
  954W        W 3719   6.177   4.625   1.214  0.1675  0.3385 -0.3817
  955W        W 3720   6.204   4.086   6.434  0.2796 -0.1455  0.0445
  956W        W 3721   2.105   1.238   5.951  0.1364  0.1478  0.4021
  957W        W 3722   7.446   7.245   0.855  0.0150  0.1227  0.0637
  958W        W 3723   4.036   0.334   0.052  0.0723  0.2948 -0.1843
  959W        W 3724   5.854   5.472   1.110 -0.0318 -0.0593  0.1171
  960W        W 3725   7.217   5.382   5.914  0.2034  0.0064 -0.3401
  961W        W 3726   7.799   8.907   7.089  0.0591 -0.0839 -0.1545
  962W        W 3727   4.661   5.504   1.510  0.0695 -0.1731 -0.0086
  963W        W 3728   8.715   2.916   6.522  0.3481 -0.0173 -0.0712
  964W        W 3729   8.538   2.548   0.708  0.0527  0.0179  0.0554
  965W        W 3730   3.142   8.965   6.194 -0.0013  0.2515  0.3844
  966W        W 3731   7.351   2.559   1.328 -0.1454 -0.0706  0.0623
  967W        W 3732   5.457   7.389   0.356  0.1402 -0.0105  0.0800
  968W        W 3733   0.193   6.114   0.883 -0.1848  0.0439 -0.1671
  969W        W 3734   2.907   3.492   5.924  0.0100 -0.1615 -0.0445
  970W        W 3735   0.624   0.859   1.288  0.1688  0.1604  0.6848
  971W        W 3736   6.851   5.465   0.353  0.0692  0.3732 -0.1428
  972W        W 3737   0.104   8.282   1.020 -0.1734  0.0173  0.2389
  973W        W 3738   4.402   4.604   6.256  0.0835  0.2355  0.0076
  974W        W 3739   5.430   5.463   5.430  0.0012  0.2193 -0.1676
  975W        W 3740   1.671   8.510   1.572  0.0502 -0.2755  0.0319
  976W        W 3741   6.374   4.153   1.562  0.1496 -0.1274  0.0772
  977W        W 3742   5.351   7.406   6.639 -0.0851 -0.2407  0.1320
  978W        W 3743   5.675   8.095   2.527  0.1710  0.0832  0.1517
  979W        W 3744   1.704   5.997   1.056 -0.0298 -0.2322 -0.1482
  980W        W 3745   1.597   3.881   1.322  0.2281  0.2921  0.0145
  981W        W 3746   5.502   3.420   6.078 -0.0430  0.0187 -0.0793
  982W        W 3747   2.514   6.833   6.981  0.1606 -0.2623  0.0093
  983W        W 3748   2.855   2.562   5.848 -0.0986  0.0217  0.0587
  984W        W 3749   1.799   0.478   6.376  0.3910  0.0602 -0.3472
  985W        W 3750   6.352   2.545   1.417 -0.0967  0.1288  0.3654
  986W        W 3751   6.914   7.476   5.819  0.0292  0.0004  0.0820
  987W        W 3752   0.619   4.607   4.660 -0.3869 -0.2155 -0.2707
  988W        W 3753   7.932   2.115   0.188 -0.1250  0.0365 -0.0702
  989W        W 3754   6.161   1.943   0.683  0.4437  0.0627 -0.0058
  990W        W 3755   2.579   1.390   1.479  0.1437  0.1700  0.0412
  991W        W 3756   0.330   2.655   4.771 -0.3642 -0.0866  0.0044
  992W        W 3757   3.095   1.912   1.384 -0.0314  0.0675  0.2969
  993W        W 3758   1.075   4.949   0.810 -0.1889 -0.0855 -0.4823
  994W        W 3759   2.384   3.864   0.798 -0.2793 -0.1058 -0.1646
  995W        W 3760   7.272   6.844   1.085 -0.1663 -0.1610  0.1721
  996W        W 3761   0.958   0.136   0.187  0.0109  0.1608 -0.0223
  997W        W 3762   4.098   6.057   0.855 -0.2051  0.2078 -0.0229
  998W        W 3763   4.893   0.661   6.682  0.4262  0.0985 -0.1353
  999W        W 3764   9.081   4.380   6.667  0.1534 -0.1413  0.0333
 1000W        W 3765   0.098   8.394   5.511 -0.0603 -0.0861  0.1367
 1001W        W 3766   2.125   3.357   0.547 -0.1504  0.0331 -0.1948
 1002W        W 3767   0.286   6.051   1.476 -0.1302  0.0878 -0.0558
 1003W        W 3768   0.184   0.206   5.628  0.1471  0.1742 -0.0489
 1004W        W 3769   3.782   6.897   7.101 -0.1895 -0.3549 -0.2222
 1005W        W 3770   6.908   2.673   0.013 -0.2822 -0.0484  0.0752
 1006W        W 3771   1.716   9.125   6.315  0.2443  0.2345  0.1454
 1007W        W 3772   1.268   0.640   0.160 -0.1008  0.3841  0.0174
 1008W        W 3773   4.331   7.608   5.587 -0.0050 -0.2830  0.0597
 1009W        W 3774   2.878   4.125   1.272 -0.1880  0.0955  0.2781
 1010W        W 3775   2.749   3.643   1.096 -0.3704  0.1562  0.1147
 1011W        W 3776   9.060   8.065   0.570  0.2357 -0.0445  0.0588
 1012W        W 3777   8.707   3.038   1.536  0.1962  0.1362  0.3299
 1013W        W 3778   4.093   8.812   1.002  0.0986  0.0785  0.1132
 1014W        W 3779   7.693   4.983   6.705  0.4100 -0.1342 -0.3291
 1015W        W 3780   6.595   3.489   0.284  0.0803  0.1206 -0.0265
 1016W        W 3781   1.236   3.988   6.634 -0.0483  0.0220 -0.3113
 1017W        W 3782   3.328   8.206   7.065 -0.0041 -0.0229 -0.1029
 1018W        W 3783   0.207   5.506   7.084 -0.3389 -0.1066  0.2550
 1019W        W 3784   0.431   4.932   0.005 -0.1049 -0.2288  0.3201
 1020W        W 3785   7.344   6.193   0.342  0.0976  0.1217 -0.0398
 1021W        W 3786   6.383   6.725   1.135 -0.0021  0.1543  0.2308
 1022W        W 3787   9.057   5.738   0.655  0.2239  0.1404 -0.0323
 1023W        W 3788   8.041   4.036   0.191  0.0327 -0.1013  0.3306
 1024W        W 3789   2.009   2.462   7.113  0.0198  0.2193  0.2074
 1025W        W 3790   1.072   3.264   5.658 -0.1745 -0.0318 -0.0883
 1026W        W 3791   6.158   4.654   1.751 -0.2621  0.1333  0.2964
 1027W        W 3792   8.287   4.570   5.306  0.0828  0.1333  0.1029
 1028W        W 3793   1.729   6.791   5.743 -0.0973 -0.3058 -0.3471
 1029W        W 3794   0.116   1.773   0.317  0.2333  0.0148  0.1975
 1030W        W 3795   7.948   7.664   1.999  0.0013 -0.0659 -0.3086
 1031W        W 3796   0.389   4.340   5.684  0.0383  0.0030  0.1476
 1032W        W 3797   7.473   6.719   6.079  0.1551 -0.3136 -0.0305
 1033W        W 3798   5.023   5.088   1.176  0.0630 -0.1573  0.0851
 1034W        W 3799   3.798   4.930   0.326 -0.3598 -0.1232 -0.3727
 1035W        W 3800   0.625   8.091   4.970  0.1530  0.0372  0.0770
 1036W        W 3801   8.332   9.101   0.759  0.0898  0.0551  0.2424
 1037W        W 3802   0.762   0.105   6.543  0.2159 -0.1840 -0.1025
 1038W        W 3803   6.253   8.587   0.721 -0.0239 -0.3660  0.1558
 1039W        W 3804   2.779   3.006   6.038 -0.2433  0.2858 -0.0565
 1040W        W 3805   8.966   7.689   0.047  0.2755  0.0355  0.2837
 1041W        W 3806   2.952   1.138   6.607  0.0096 -0.0179 -0.3932
 1042W        W 3807   2.083   8.950   7.084  0.1584 -0.0682  0.2225
 1043W        W 3808   5.493   1.785   2.278  0.0019  0.0018  0.1638
 1044W        W 3809   4.993   7.829   0.345 -0.1758 -0.1480 -0.1054
 1045W        W 3810   1.927   0.095   5.901 -0.0655 -0.2193  0.1655
 1046W        W 3811   4.222   6.092   6.735  0.4179 -0.1555 -0.0196
 1047W        W 3812   1.979   3.054   0.979 -0.2204 -0.0772  0.1778
 1048W        W 3813   8.418   8.841   0.176 -0.0602 -0.3901  0.3203
 1049W        W 3814   1.949   7.907   0.857 -0.0387 -0.1377  0.0886
 1050W        W 3815   1.666   9.007   1.705  0.0613 -0.0687  0.5316
 1051W        W 3816   7.601   0.562   1.268 -0.0416 -0.1103  0.1293
 1052W        W 3817   8.871   6.083   6.568 -0.1669  0.0073  0.0023
 1053W        W 3818   2.297   0.768   6.206  0.3275  0.4703  0.1239
 1054W        W 3819   4.270   8.285   1.078  0.2554 -0.3368 -0.2987
 1055W        W 3820   8.496   7.678   0.210  0.4445  0.4239  0.3441
 1056W        W 3821   1.187   3.250   0.426 -0.2200 -0.1062  0.1410
 1057W        W 3822   7.722   5.380   5.456 -0.1396 -0.3037  0.1445
 1058W        W 3823   4.190   3.643   6.270  0.1801  0.1423 -0.0347
 1059W        W 3824   9.106   0.162   7.073  0.4791  0.0500 -0.0292
 1060W        W 3825   0.557   8.371   5.328  0.0399  0.4247 -0.1432
 1061W        W 3826   4.246   5.180   1.842  0.1095 -0.2689 -0.0943
 1062W        W 3827   1.900   7.510   6.230 -0.1901 -0.4468 -0.3146
 1063W        W 3828   6.466   4.510   6.663  0.2378 -0.1605  0.1774
 1064W        W 3829   1.564   0.120   5.195  0.2180  0.7328 -0.0650
 1065W        W 3830   4.998   2.210   1.185  0.0081  0.3265  0.1196
 1066W        W 3831   4.015   9.044   6.299 -0.2626  0.0420  0.1206
 1067W        W 3832   5.587   7.995   0.926 -0.2596  0.0609 -0.0152
 1068W        W 3833   7.829   5.259   0.557 -0.0784  0.0473  0.1357
 1069W        W 3834   0.675   2.699   6.941  0.0165 -0.1035 -0.1069
 1070W        W 3835   4.352   5.206   5.618 -0.0312 -0.3598  0.0545
 1071W        W 3836   3.688   2.761   1.323 -0.2003  0.0436 -0.0404
 1072W        W 3837   2.656   1.898   1.589  0.0328  0.2940 -0.3824
 1073W        W 3838   8.303   1.024   6.916  0.2913  0.1361 -0.1697
 1074W        W 3839   4.386   1.377   0.712  0.0004 -0.1142 -0.0640
 1075W        W 3840   5.516   5.608   6.842  0.0495 -0.0426  0.3173
 1076W        W 3841   3.211   0.829   5.948  0.0147 -0.0393  0.1491
 1077W        W 3842   3.995   2.364   0.500  0.1017 -0.1267  0.0907
 1078W        W 3843   9.014   6.405   0.546 -0.1045 -0.0856  0.1792
 1079W        W 3844   1.639   2.662   6.767  0.2669  0.1096 -0.0576
 1080W        W 3845   5.939   5.670   6.566  0.1031  0.2277  0.1098
 1081W        W 3846   8.989   8.892   1.512 -0.0517  0.2202 -0.1248
 1082W        W 3847   7.561   0.051   1.315 -0.3883  0.3315 -0.2140
 1083W        W 3848   1.008   5.202   0.369  0.0793 -0.2738  0.3362
 1084W        W 3849   5.335   4.330   6.425 -0.1091  0.0266  0.2015
 1085W        W 3850   3.855   6.582   1.000  0.2683  0.0501  0.0710
 1086W        W 3851   0.609   0.371   5.982  0.1827  0.2372 -0.0685
 1087W        W 3852   3.606   0.667   6.316  0.4474  0.0420  0.1364
 1088W        W 3853   5.745   0.414   5.859 -0.0943  0.3199 -0.0439
 1089W        W 3854   4.733   0.597   6.165  0.0466  0.0082 -0.0268
 1090W        W 3855   7.715   0.574   5.529 -0.2195 -0.0572  0.0793
 1091W        W 3856   3.798   3.618   6.712  0.0612  0.1632  0.0351
 1092W        W 3857   8.950   4.794   1.172  0.0918 -0.2467 -0.3447
 1093W        W 3858   2.046   8.918   1.389 -0.2971  0.0540  0.4200
 1094W        W 3859   3.913   7.873   0.899  0.2244  0.0157 -0.0060
 1095W        W 3860   5.027   5.250   6.197 -0.0043 -0.4613 -0.1334
 1096W        W 3861   1.757   0.446   0.683 -0.3527  0.0260  0.2759
 1097W        W 3862   4.213   1.539   0.333 -0.3468  0.1936  0.5016
 1098W        W 3863   5.929   7.253   1.899 -0.1861  0.0988  0.2940
 1099W        W 3864   2.914   0.220   6.541  0.0909  0.0855 -0.1064
 1100W        W 3865   2.877   7.331   0.112  0.1063 -0.3154  0.0022
 1101W        W 3866   1.662   2.241   1.321 -0.3680 -0.1202 -0.2362
 1102W        W 3867   1.275   5.630   5.725 -0.1640  0.0331  0.1446
 1103W        W 3868   2.649   7.844   6.860 -0.1430 -0.2823  0.2436
 1104W        W 3869   5.944   5.807   7.063  0.4486 -0.1499 -0.0154
 1105W        W 3870   1.489   3.859   5.828 -0.2945  0.2448  0.0966
 1106W        W 3871   3.437   5.530   6.605  0.1893  0.0600 -0.0636
 1107W        W 3872   6.231   1.094   6.576 -0.2909  0.0424  0.1311
 1108W        W 3873   5.630   3.232   0.125  0.0519  0.0392  0.0868
 1109W        W 3874   1.774   7.045   6.212 -0.2098  0.0392  0.1157
 1110W        W 3875   5.409   7.635   1.316  0.1745  0.1086  0.1197
 1111W        W 3876   0.238   3.687   0.115 -0.3334  0.0743  0.2829
 1112W        W 3877   1.197   6.594   0.557 -0.2313  0.0615 -0.2138
 1113W        W 3878   8.966   3.978   0.444 -0.5273 -0.0696 -0.0585
 1114W        W 3879   8.538   1.405   1.373  0.3319 -0.0970  0.1807
 1115W        W 3880   2.760   6.774   5.748 -0.1063 -0.0764  0.1756
 1116W        W 3881   6.833   7.901   1.427  0.0001 -0.0507  0.0717
 1117W        W 3882   0.698   1.647   4.814  0.0102  0.1042 -0.0125
 1118W        W 3883   6.914   2.221   6.875 -0.0487 -0.0543 -0.1173
 1119W        W 3884   0.265   2.041   0.927  0.0420  0.0882 -0.1865
 1120W        W 3885   5.424   5.113   1.609 -0.1036 -0.0473 -0.0504
 1121W        W 3886   5.005   5.934   1.375  0.2679  0.0684 -0.0548
 1122W        W 3887   1.085   5.696   0.469 -0.0815  0.2616 -0.2023
 1123W        W 3888   0.798   4.773   5.530  0.2806  0.0548 -0.3569
 1124W        W 3889   1.194   4.562   0.454  0.1242 -0.2948  0.0759
 1125W        W 3890   5.731   5.895   1.379  0.2734 -0.2403  0.0693
 1126W        W 3891   1.430   8.017   6.262  0.4665 -0.2254 -0.1164
 1127W        W 3892   5.475   1.963   1.140  0.2609 -0.1220 -0.3827
 1128W        W 3893   8.205   1.763   0.528 -0.0377 -0.3177  0.1737
 1129W        W 3894   1.602   0.536   6.921 -0.3751  0.3247  0.1086
 1130W        W 3895   2.765   2.967   1.688 -0.1059 -0.1055  0.1143
 1131W        W 3896   5.729   2.751   0.914 -0.0038 -0.1756 -0.1617
 1132W        W 3897   5.241   0.234   6.349 -0.3536 -0.3551  0.2208
 1133W        W 3898   8.077   1.919   6.015 -0.2523 -0.2189 -0.3235
 1134W        W 3899   6.122   8.083   1.026  0.0366  0.0803  0.2796
 1135W        W 3900   5.233   5.410   0.371  0.0202 -0.0419  0.0168
 1136W        W 3901   4.504   2.910   6.943  0.0988  0.0864  0.0319
 1137W        W 3902   6.213   0.285   0.991 -0.1194  0.1092  0.3256
 1138W        W 3903   7.238   3.362   5.415  0.1678 -0.2049  0.1240
 1139W        W 3904   8.618   3.593   5.598 -0.2980  0.0569  0.0594
 1140W        W 3905   4.727   5.961   6.739 -0.1110 -0.1486 -0.5198
 1141W        W 3906   3.521   2.649   6.625  0.3423 -0.2420  0.2043
 1142W        W 3907   2.885   3.139   5.571  0.0439  0.1482  0.1729
 1143W        W 3908   5.794   6.264   5.583 -0.0222 -0.0472  0.3069
 1144W        W 3909   2.767   8.523   1.954 -0.1990 -0.1305 -0.1102
 1145W        W 3910   6.663   0.264   0.247 -0.0707  0.0345  0.0267
 1146W        W 3911   1.529   5.851   0.577  0.0046  0.0751  0.0762
 1147W        W 3912   2.320   4.652   5.532 -0.0860 -0.0261 -0.2838
 1148W        W 3913   5.905   8.174   0.563  0.1238 -0.1630 -0.2785
 1149W        W 3914   5.460   2.736   6.428 -0.1966  0.1026 -0.3260
 1150W        W 3915   2.490   0.463   7.066  0.1229  0.1355 -0.0087
 1151W        W 3916   2.310   6.536   6.658 -0.1873 -0.0420 -0.1333
 1152W        W 3917   7.025   4.675   6.428 -0.3135  0.0696 -0.0997
 1153W        W 3918   0.977   1.547   6.895  0.0215  0.2146  0.1100
 1154W        W 3919   4.931   3.639   0.035 -0.0514 -0.5156 -0.3966
 1155W        W 3920   0.067   4.000   0.902 -0.2866 -0.1319  0.2292
 1156W        W 3921   2.133   3.874   6.772  0.5393 -0.1544  0.1306
 1157W        W 3922   2.712   0.493   1.341  0.0574  0.2923  0.2002
 1158W        W 3923   6.402   0.603   6.470  0.0290 -0.1699  0.3493
 1159W        W 3924   7.417   4.828   5.169  0.3017  0.1741 -0.2290
 1160W        W 3925   3.741   1.169   7.046 -0.1257  0.1326 -0.1079
 1161W        W 3926   5.192   6.792   6.329  0.1379  0.3078  0.1042
 1162W        W 3927   6.101   2.757   0.063  0.1090  0.0669 -0.4445
 1163W        W 3928   4.275   8.581   6.047  0.0807  0.2027 -0.1283
 1164W        W 3929   7.547   6.481   5.598  0.3430 -0.2166  0.1088
 1165W        W 3930   3.869   5.616   0.968  0.1383  0.1620 -0.1281
 1166W        W 3931   5.598   1.467   7.053 -0.1466  0.3058 -0.2537
 1167W        W 3932   2.925   6.118   1.218  0.0805  0.2116 -0.1898
 1168W        W 3933   8.031   1.267   0.886  0.0598 -0.0471 -0.0829
 1169W        W 3934   6.393   8.897   1.188 -0.4176 -0.0499  0.2664
 1170W        W 3935   7.495   4.206   6.489 -0.1979  0.3249  0.0394
 1171W        W 3936   8.008   1.147   1.945  0.0963  0.1423 -0.0669
 1172W        W 3937   4.932   6.934   1.849 -0.2315 -0.1366 -0.0839
 1173W        W 3938   5.123   5.702   6.551 -0.0604  0.2729 -0.1920
 1174W        W 3939   2.232   6.784   5.926  0.1336  0.2013 -0.0140
 1175W        W 3940   0.310   3.815   5.714 -0.1018 -0.1395 -0.0836
 1176W        W 3941   6.514   8.849   0.213  0.2083  0.0713  0.1463
 1177W        W 3942   9.066   3.450   5.718 -0.3286  0.0403 -0.4910
 1178W        W 3943   3.519   4.074   2.158  0.1083  0.3037 -0.0004
 1179W        W 3944   1.539   4.610   5.850 -0.5177  0.3381 -0.2538
 1180W        W 3945   5.699   2.690   0.346 -0.0785  0.2545  0.0399
 1181W        W 3946   1.026   1.877   0.640 -0.0187  0.3872  0.1354
 1182W        W 3947   6.648   0.194   6.480 -0.0317  0.0104 -0.2223
 1183W        W 3948   2.146   5.692   6.402 -0.0666 -0.0665 -0.0268
 1184W        W 3949   1.980   5.547   0.325 -0.0794 -0.1938  0.2183
 1185W        W 3950   6.297   5.458   5.694  0.2109 -0.1239  0.0534
 1186W        W 3951   1.064   3.696   6.246  0.0660 -0.1001 -0.1599
 1187W        W 3952   3.106   0.649   6.474 -0.0965 -0.0362 -0.1558
 1188W        W 3953   8.152   7.413   0.522  0.2159 -0.0728 -0.2093
 1189W        W 3954   6.032   3.185   6.840 -0.1318  0.3954 -0.1340
 1190W        W 3955   4.346   9.127   0.327  0.0234 -0.0956 -0.2811
 1191W        W 3956   8.483   7.359   5.727  0.0637 -0.3255  0.1381
 1192W        W 3957   5.852   9.056   0.706  0.1568  0.2985  0.0825
 1193W        W 3958   3.430   5.083   0.657  0.4499 -0.2175 -0.1578
 1194W        W 3959   4.407   4.373   6.763  0.2797 -0.0758  0.0845
 1195W        W 3960   5.954   7.654   0.670 -0.2622  0.1341  0.2480
 1196W        W 3961   1.345   4.526   0.892  0.1656 -0.1943 -0.3181
 1197W        W 3962   4.187   2.170   6.275  0.0513 -0.1669 -0.2850
 1198W        W 3963   4.415   3.117   0.289 -0.0151 -0.2921  0.0440
 1199W        W 3964   2.428   2.872   1.171 -0.3031 -0.1598  0.2631
 1200W        W 3965   8.730   2.551   6.173 -0.0753  0.2421  0.2529
 1201W        W 3966   0.109   4.484   6.179  0.1223 -0.1689  0.0826
 1202W        W 3967   3.618   5.399   0.257  0.0564 -0.4036  0.0687
 1203W        W 3968   4.101   0.731   6.360  0.1572  0.0458  0.1181
 1204W        W 3969   1.213   3.906   1.637 -0.0371  0.1161 -0.2630
 1205W        W 3970   7.198   8.483   0.567 -0.0041  0.1911 -0.0391
 1206W        W 3971   1.325   0.866   1.565 -0.2032 -0.0141  0.3154
 1207W        W 3972   2.583   6.730   1.785  0.0103 -0.2782 -0.3027
 1208W        W 3973   7.669   8.865   0.881 -0.0046 -0.0608  0.5322
 1209W        W 3974   2.347   0.478   0.491  0.1265  0.0936  0.0827
 1210W        W 3975   5.889   0.615   1.367  0.3411  0.2457 -0.3076
 1211W        W 3976   5.822   4.783   7.045  0.2205  0.0365  0.0503
 1212W        W 3977   1.640   1.203   0.569 -0.2978 -0.0624 -0.0234
 1213W        W 3978   4.023   0.665   5.644  0.1323 -0.2014 -0.0741
 1214W        W 3979   7.247   0.199   0.165 -0.0486  0.1560 -0.5394
 1215W        W 3980   8.946   1.260   1.100 -0.5633  0.0325 -0.2589
 1216W        W 3981   2.569   6.178   0.864  0.2774  0.3634 -0.1030
 1217W        W 3982   3.579   8.677   7.007 -0.1711  0.4751  0.1879
 1218W        W 3983   8.055   3.909   6.536  0.0045 -0.1509 -0.2239
 1219W        W 3984   3.442   6.045   6.197  0.1914 -0.0647 -0.1578
 1220W        W 3985   8.647   2.789   5.198  0.2962 -0.0342  0.1090
 1221W        W 3986   2.793   1.016   1.217  0.0896  0.1548  0.0095
 1222W        W 3987   9.003   3.861   6.568  0.0960 -0.1613 -0.0618
 1223W        W 3988   8.793   1.275   5.583 -0.1173  0.0023 -0.2904
 1224W        W 3989   6.181   6.667   6.522 -0.1728  0.1693 -0.3488
 1225W        W 3990   0.206   9.126   6.593  0.2465 -0.1479 -0.0403
 1226W        W 3991   2.294   6.306   0.436 -0.2208  0.0067 -0.0102
 1227W        W 3992   7.074   2.339   0.428  0.2532  0.0142  0.0991
 1228W        W 3993   4.929   6.471   7.103  0.4110 -0.1418 -0.1381
 1229W        W 3994   1.328   6.068   6.819 -0.0139 -0.1136 -0.3379
 1230W        W 3995   8.535   3.770   6.392 -0.1664 -0.0007  0.1841
 1231W        W 3996   2.564   7.484   1.168 -0.0722  0.1141 -0.0571
 1232W        W 3997   8.417   6.700   5.706  0.3227 -0.1475 -0.1558
 1233W        W 3998   2.388   2.819   5.745  0.1584  0.1814  0.0942
 1234W        W 3999   4.634   2.904   6.170 -0.3811 -0.0002 -0.2108
 1235W        W 4000   4.178   8.117   0.535  0.3217 -0.0889  0.3520
 1236W        W 4001   2.209   1.392   2.382 -0.3011  0.0602  0.0554
 1237W        W 4002   6.505   4.765   0.816  0.1913  0.0171  0.2201
 1238W        W 4003   9.040   6.141   4.702 -0.2142 -0.1050  0.2066
 1239W        W 4004   8.498   6.079   6.883  0.0468 -0.2252  0.0247
 1240W        W 4005   5.477   4.189   6.879 -0.3097 -0.0564 -0.0486
 1241W        W 4006   6.085   6.010   1.725  0.1886  0.1306 -0.1394
 1242W        W 4007   4.574   5.927   6.242  0.1013  0.0692  0.2570
 1243W        W 4008   0.058   2.992   5.670 -0.0476 -0.2789  0.2084
 1244W        W 4009   6.864   5.006   0.092  0.0427 -0.2425  0.3662
 1245W        W 4010   4.580   0.269   0.004 -0.1403  0.0636  0.1048
 1246W        W 4011   0.759   1.245   0.934  0.2431  0.1477 -0.1486
 1247W        W 4012   7.487   3.714   0.133 -0.0644 -0.0740  0.0641
 1248W        W 4013   5.486   2.435   1.385  0.0547  0.0231  0.1341
 1249W        W 4014   2.992   4.768   0.654 -0.1733 -0.0610  0.0307
 1250W        W 4015   3.637   4.512   0.726  0.0195  0.0932 -0.1104
 1251W        W 4016   7.268   3.868   5.602 -0.3415  0.0666 -0.2193
 1252W        W 4017   4.705   6.028   5.736 -0.1674  0.0315 -0.0988
 1253W        W 4018   0.087   0.971   5.514  0.0274 -0.1019 -0.2853
 1254W        W 4019   1.775   1.805   6.492  0.0406 -0.0765  0.2946
 1255W        W 4020   1.852   0.839   1.585 -0.0497  0.2735  0.0807
 1256W        W 4021   8.891   2.607   0.330  0.0393 -0.1473  0.0753
 1257W        W 4022   4.946   6.426   1.464  0.2188  0.0082  0.1023
 1258W        W 4023   7.645   4.304   0.220  0.0850  0.0605 -0.2529
 1259W        W 4024   6.141   1.539   1.526  0.1910 -0.1131  0.2885
 1260W        W 4025   6.317   6.760   0.095 -0.0105  0.0879  0.0887
 1261W        W 4026   7.086   5.896   6.719 -0.1776  0.0779  0.5126
 1262W        W 4027   8.009   0.396   5.939  0.1111 -0.2198  0.3637
 1263W        W 4028   3.110   2.630   1.940  0.2639 -0.1347 -0.0483
 1264W        W 4029   0.767   6.671   0.375 -0.2180 -0.1631 -0.1969
 1265W        W 4030   1.509   3.380   6.324  0.2440  0.0394  0.1453
 1266W        W 4031   5.303   6.174   0.374 -0.1036 -0.0005 -0.3209
 1267W        W 4032   2.435   2.353   6.859 -0.1681  0.2115  0.0046
 1268W        W 4033   0.603   1.801   0.150  0.0358  0.4613 -0.2111
 1269W        W 4034   5.803   8.590   6.035  0.1661 -0.2414 -0.1386
 1270W        W 4035   2.308   8.669   6.751 -0.1882  0.2997 -0.0799
 1271W        W 4036   6.471   5.218   0.526 -0.3077  0.2970  0.0312
 1272W        W 4037   1.787   4.520   7.098  0.0276 -0.0554  0.1301
 1273W        W 4038   7.494   0.253   5.879  0.1685  0.1278  0.0847
 1274W        W 4039   1.810   3.396   5.965 -0.0915  0.1186 -0.0475
 1275W        W 4040   2.459   8.693   0.500  0.1226 -0.0911 -0.1133
 1276W        W 4041   5.408   4.537   0.173  0.0457 -0.0152  0.3061
 1277W        W 4042   5.661   6.539   6.467  0.1003  0.2135 -0.0004
 1278W        W 4043   6.050   1.373   0.820  0.0143  0.2611  0.2216
 1279W        W 4044   1.042   6.492   5.331 -0.1430 -0.3364 -0.1474
 1280W        W 4045   0.599   7.457   0.284 -0.1131 -0.1845  0.0919
 1281W        W 4046   3.061   5.299   6.406 -0.1842 -0.3051 -0.1553
 1282W        W 4047   8.435   3.772   0.303 -0.3098 -0.0744 -0.2169
 1283W        W 4048   2.999   4.706   1.631 -0.0081 -0.1388  0.1930
 1284W        W 4049   5.567   6.886   5.996 -0.1294 -0.0794 -0.6243
 1285W        W 4050   3.303   3.888   0.499 -0.4351  0.0550 -0.2448
 1286W        W 4051   3.639   1.627   0.145 -0.1196  0.2157  0.2067
 1287W        W 4052   3.846   0.322   4.940  0.0847  0.1139  0.4042
 1288W        W 4053   4.783   8.760   6.891  0.1758  0.1425  0.0920
 1289W        W 4054   8.226   0.193   7.021 -0.0500 -0.4625 -0.0781
 1290W        W 4055   5.937   0.006   1.940 -0.2385  0.2084  0.1065
 1291W        W 4056   4.341   1.972   6.693  0.1207  0.1464  0.0455
 1292W        W 4057   7.745   7.122   0.429 -0.1402  0.0714 -0.1060
 1293W        W 4058   3.430   9.069   1.311 -0.0203  0.2209 -0.2261
 1294W        W 4059   8.701   8.582   0.618  0.3548  0.3460 -0.3172
 1295W        W 4060   6.763   0.409   5.427  0.3941  0.1227  0.1509
 1296W        W 4061   3.997   3.699   1.027 -0.0112 -0.0441  0.4036
 1297W        W 4062   7.138   7.913   5.834  0.3290  0.3405  0.2724
 1298W        W 4063   3.335   6.335   0.120  0.3889  0.3925 -0.0537
 1299W        W 4064   2.226   7.015   0.988  0.3465  0.2067 -0.0357
 1300W        W 4065   3.557   4.242   0.211  0.2110 -0.0693 -0.1887
 1301W        W 4066   1.599   6.695   1.762  0.0487 -0.1303 -0.2133
 1302W        W 4067   4.552   6.913   6.470 -0.1162  0.1117 -0.1150
 1303W        W 4068   6.622   1.404   6.260  0.1886  0.1597 -0.1779
 1304W        W 4069   5.524   3.452   1.485  0.0605 -0.0821  0.1398
 1305W        W 4070   3.659   7.498   1.131  0.2585 -0.0282 -0.1913
 1306W        W 4071   8.589   0.285   2.030 -0.1139  0.3920 -0.0994
 1307W        W 4072   6.835   9.059   6.915  0.1279  0.0557 -0.0870
 1308W        W 4073   1.201   7.674   5.866  0.1597 -0.0933  0.0669
 1309W        W 4074   3.877   4.044   6.500 -0.0137 -0.1720 -0.0327
 1310W        W 4075   5.006   4.267   6.098  0.3295  0.3339  0.0633
 1311W        W 4076   4.642   8.156   0.754 -0.0997 -0.2030  0.1986
 1312W        W 4077   1.111   2.112   6.107  0.0865  0.1302  0.1314
 1313W        W 4078   5.637   5.800   0.386  0.0168  0.0435 -0.2676
 1314W        W 4079   7.898   2.591   0.123  0.0448  0.0302 -0.1536
 1315W        W 4080   2.386   3.610   0.211  0.1343  0.1996 -0.3347
 1316W        W 4081   2.602   3.231   0.845 -0.1283 -0.1122  0.3416
 1317W        W 4082   0.824   4.927   6.481 -0.1448 -0.0480 -0.3322
 1318W        W 4083   8.765   6.105   0.818 -0.5734 -0.2170 -0.1252
 1319W        W 4084   4.290   4.778   0.558  0.2938 -0.0161 -0.1197
 1320W        W 4085   1.139   5.099   5.450 -0.0997 -0.2597  0.1663
 1321W        W 4086   9.005   0.258   5.987  0.0409  0.0145  0.1552
 1322W        W 4087   4.134   6.523   2.097 -0.1597 -0.1171  0.1660
 1323W        W 4088   5.795   4.208   6.175  0.2085  0.0327 -0.1382
 1324W        W 4089   2.650   0.862   5.823 -0.1358  0.2703  0.2219
 1325W        W 4090   8.094   8.519   7.054  0.1229  0.1317 -0.3602
 1326W        W 4091   1.462   3.462   5.506 -0.3290 -0.3316  0.0632
 1327W        W 4092   4.009   5.664   0.514 -0.2324 -0.0513 -0.0270
 1328W        W 4093   4.687   1.253   0.272  0.2094 -0.0475 -0.3940
 1329W        W 4094   0.922   4.719   5.074 -0.4604  0.0841  0.1193
 1330W        W 4095   3.735   1.310   1.513  0.0175  0.1596 -0.2174
 1331W        W 4096   2.359   2.060   0.199 -0.2082 -0.2064 -0.2236
 1332W        W 4097   6.294   5.554   1.601 -0.1203  0.0926  0.1820
 1333W        W 4098   0.496   6.933   5.793  0.4828  0.1005  0.1601
 1334W        W 4099   3.870   8.347   0.085  0.2017  0.0873 -0.1243
 1335W        W 4100   3.306   7.420   6.125  0.0286  0.0622 -0.3176
 1336W        W 4101   3.582   8.888   0.870 -0.2249  0.2548 -0.1233
 1337W        W 4102   8.861   5.392   6.247 -0.1786  0.1399 -0.1114
 1338W        W 4103   1.809   7.028   1.343 -0.1209 -0.2582 -0.0792
 1339W        W 4104   0.042   7.663   6.084  0.0054 -0.1458  0.3452
 1340W        W 4105   6.981   2.540   5.584  0.2525  0.0504  0.1752
 1341W        W 4106   4.884   3.716   0.859 -0.1786 -0.1923 -0.2292
 1342W        W 4107   5.943   6.034   2.273  0.0565 -0.3603 -0.1018
 1343W        W 4108   3.813   1.150   1.073 -0.1132 -0.1087 -0.0451
 1344W        W 4109   6.370   7.640   6.412 -0.0481 -0.0229  0.0535
 1345W        W 4110   7.784   3.328   4.917  0.1650 -0.3168  0.3282
 1346W        W 4111   2.453   0.043   6.752  0.0038 -0.0277  0.1816
 1347W        W 4112   8.633   9.037   6.879  0.1588 -0.3373 -0.0031
 1348W        W 4113   6.066   1.440   6.863  0.0825 -0.1081  0.1236
 1349W        W 4114   4.368   6.348   1.152  0.1371  0.0455 -0.1108
 1350W        W 4115   2.629   5.348   6.629 -0.0369  0.0011  0.1805
 1351W        W 4116   3.706   3.167   6.561 -0.3115 -0.3844 -0.0429
 1352W        W 4117   5.487   1.511   0.935 -0.2463 -0.1257 -0.2272
 1353W        W 4118   0.504   3.265   0.330 -0.0184  0.1041 -0.1193
 1354W        W 4119   2.818   4.085   0.726  0.0988 -0.0261 -0.1297
 1355W        W 4120   2.843   2.343   6.337  0.3215  0.1690 -0.1602
 1356W        W 4121   6.531   8.348   1.089  0.0275 -0.2005  0.1579
 1357W        W 4122   7.938   8.229   0.802 -0.1301  0.1666 -0.0484
 1358W        W 4123   8.909   5.019   0.073 -0.1796 -0.0816  0.0556
 1359W        W 4124   7.436   0.754   5.969 -0.3011  0.2195  0.0663
 1360W        W 4125   6.701   2.414   5.964 -0.0179 -0.0179  0.1835
 1361W        W 4126   0.217   3.497   6.752  0.2247 -0.2449  0.0153
 1362W        W 4127   3.560   3.588   1.368  0.0861 -0.2632  0.0877
 1363W        W 4128   2.165   6.431   0.912 -0.1352 -0.0256  0.0890
 1364W        W 4129   2.953   8.111   0.745 -0.0774  0.1674 -0.1045
 1365W        W 4130   3.566   5.885   0.380 -0.0133 -0.1133  0.0797
 1366W        W 4131   2.775   8.784   6.631 -0.0709  0.0503 -0.0653
 1367W        W 4132   6.783   1.267   0.279 -0.2127 -0.0823  0.0412
 1368W        W 4133   7.803   0.859   1.666 -0.0815  0.1753 -0.0989
 1369W        W 4134   8.138   4.717   1.330  0.0447  0.1464  0.0211
 1370W        W 4135   3.133   4.447   6.980  0.0696 -0.1358  0.0837
 1371W        W 4136   4.214   2.777   2.134 -0.1338 -0.1381  0.0702
 1372W        W 4137   6.734   4.193   0.168  0.3238  0.0490  0.1547
 1373W        W 4138   6.957   7.042   0.698 -0.2163  0.1655 -0.0353
 1374W        W 4139   6.423   1.717   1.985 -0.0162 -0.0941  0.2407
 1375W        W 4140   3.001   7.535   6.577  0.2274 -0.2256  0.2340
 1376W        W 4141   8.372   6.249   5.299  0.2626  0.0852  0.2079
 1377W        W 4142   1.323   2.278   0.568 -0.1725 -0.1966  0.0616
 1378W        W 4143   2.387   8.899   5.375 -0.2894  0.0151  0.2517
 1379W        W 4144   1.773   0.572   1.140 -0.1626  0.3051 -0.2569
 1380W        W 4145   7.520   7.001   5.638  0.1757  0.0902  0.3640
 1381W        W 4146   2.082   0.674   6.763  0.0431 -0.3669  0.2149
 1382W        W 4147   0.168   0.315   0.729 -0.0898  0.2108  0.1293
 1383W        W 4148   3.102   0.717   1.521  0.0401 -0.0085  0.1901
 1384W        W 4149   3.389   1.609   1.849 -0.0902 -0.1779 -0.1371
 1385W        W 4150   8.831   7.204   1.013 -0.2977 -0.1808  0.4354
 1386W        W 4151   3.684   7.831   7.022  0.1295  0.1331 -0.0419
 1387W        W 4152   4.592   6.876   5.954 -0.1823  0.1763  0.2607
 1388W        W 4153   1.878   6.064   6.238 -0.3001  0.3888  0.2773
 1389W        W 4154   3.072   9.132   0.910 -0.0478  0.1399  0.0072
 1390W        W 4155   4.029   3.362   5.758 -0.0194 -0.0322 -0.0938
 1391W        W 4156   4.028   7.269   1.521 -0.1081  0.1010 -0.3224
 1392W        W 4157   1.241   7.470   6.825 -0.2485  0.1382 -0.1845
 1393W        W 4158   7.002   4.210   6.697  0.1403  0.0352 -0.1569
 1394W        W 4159   1.910   9.000   2.126 -0.2961 -0.1033  0.0257
 1395W        W 4160   2.665   4.830   6.022 -0.1648  0.0725  0.2824
 1396W        W 4161   8.963   6.841   1.363 -0.1826 -0.0311 -0.0150
 1397W        W 4162   0.339   6.550   0.699  0.1500 -0.1363 -0.0506
 1398W        W 4163   7.234   6.377   6.430  0.0834  0.0068  0.0824
 1399W        W 4164   8.999   3.042   6.925 -0.4172  0.2420 -0.2869
 1400W        W 4165   6.866   4.595   6.981  0.0806 -0.0056 -0.1775
 1401W        W 4166   4.527   4.856   0.076 -0.2616  0.2577 -0.0522
 1402W        W 4167   0.950   7.135   0.636  0.1091 -0.1087 -0.0119
 1403W        W 4168   8.849   6.405   0.049 -0.0583 -0.1826  0.2873
 1404W        W 4169   1.027   2.821   5.306 -0.0397 -0.1355 -0.0753
 1405W        W 4170   1.360   3.747   0.590 -0.0481 -0.0336  0.0035
 1406W        W 4171   1.351   0.096   2.078 -0.3531 -0.0334  0.0735
 1407W        W 4172   0.145   4.732   0.344  0.0282  0.2299  0.1301
 1408W        W 4173   1.342   1.815   1.092  0.0205  0.0075 -0.1758
 1409W        W 4174   3.940   4.531   6.320 -0.0351  0.2847  0.3762
 1410W        W 4175   7.875   2.817   1.421 -0.2293  0.1644 -0.0376
 1411W        W 4176   6.189   2.827   0.546 -0.1872 -0.0295 -0.0275
 1412W        W 4177   9.049   9.093   1.079  0.1774  0.0119  0.0845
 1413W        W 4178   4.078   0.351   0.605  0.1673 -0.1528  0.0704
 1414W        W 4179   6.759   0.784   0.259 -0.0722 -0.0201 -0.1367
 1415W        W 4180   5.117   5.983   7.038 -0.1265  0.0706  0.0074
 1416W        W 4181   4.622   7.961   1.214 -0.0074  0.1043  0.0018
 1417W        W 4182   6.741   0.944   6.619 -0.1070  0.2212  0.2219
 1418W        W 4183   5.274   5.840   0.845  0.0220 -0.1942  0.0718
 1419W        W 4184   8.578   8.582   6.893 -0.3332  0.4052  0.1616
 1420W        W 4185   0.552   8.324   1.392  0.2236  0.1925  0.1448
 1421W        W 4186   3.751   1.460   6.058  0.1382  0.0553  0.0489
 1422W        W 4187   4.843   0.841   0.623  0.2960 -0.4291  0.1908
 1423W        W 4188   7.133   0.070   1.833 -0.1522  0.0571  0.0472
 1424W        W 4189   4.725   3.888   6.262  0.0602  0.0302 -0.0868
 1425W        W 4190   2.964   2.791   0.124 -0.1381  0.0616  0.1898
 1426W        W 4191   8.340   4.452   7.069 -0.1296  0.1100 -0.3823
 1427W        W 4192   6.897   0.831   1.504  0.3951 -0.1960  0.1051
 1428W        W 4193   6.965   4.756   5.373  0.0107 -0.0153 -0.0609
 1429W        W 4194   3.771   5.224   5.356  0.2521  0.4397 -0.0478
 1430W        W 4195   3.474   4.740   1.490  0.0648  0.0178 -0.0937
 1431W        W 4196   5.423   6.358   6.023  0.2939 -0.0806  0.4438
 1432W        W 4197   0.850   6.137   1.326  0.4203 -0.2330  0.0502
 1433W        W 4198   1.251   8.242   0.262 -0.3495 -0.1403  0.1883
 1434W        W 4199   6.244   2.014   7.014  0.1157  0.1017  0.0102
 1435W        W 4200   3.169   7.046   6.934 -0.1462 -0.2018  0.1127
 1436W        W 4201   4.013   7.369   6.926  0.2612  0.1037 -0.3293
 1437W        W 4202   8.654   6.284   5.838  0.0041 -0.3579  0.0900
 1438W        W 4203   8.987   2.113   6.221 -0.0991 -0.0181  0.2759
 1439W        W 4204   1.297   6.376   0.975  0.0627 -0.1282  0.2916
 1440W        W 4205   2.546   1.736   1.099  0.0347 -0.0895 -0.0484
 1441W        W 4206   3.064   4.314   1.963  0.2810  0.3150 -0.2946
 1442W        W 4207   4.980   2.347   5.608 -0.1871 -0.0311  0.0188
 1443W        W 4208   3.386   3.438   6.945 -0.3312 -0.1201  0.0293
 1444W        W 4209   1.114   0.923   1.103  0.0409  0.3246 -0.1276
 1445W        W 4210   5.237   3.475   0.474  0.0068 -0.1625  0.2646
 1446W        W 4211   0.327   7.047   6.656  0.4745 -0.2534 -0.2756
 1447W        W 4212   6.077   8.986   5.768  0.1578 -0.5244  0.0334
 1448W        W 4213   4.378   0.406   5.850 -0.1852 -0.2137  0.0397
 1449W        W 4214   5.018   7.196   0.957 -0.0229  0.1941  0.1500
 1450W        W 4215   7.895   3.586   0.662 -0.1517  0.2146  0.1570
 1451W        W 4216   7.916   1.978   0.918 -0.1587 -0.0837 -0.2660
 1452W        W 4217   5.093   5.753   5.203  0.1329  0.2986  0.2061
 1453W        W 4218   1.278   2.647   6.175  0.1869 -0.0924 -0.1136
 1454W        W 4219   3.017   2.384   0.504 -0.0611  0.3253 -0.0576
 1455W        W 4220   8.635   5.378   4.785  0.1180 -0.0796 -0.0103
 1456W        W 4221   8.383   7.997   0.602  0.1767  0.4000  0.1939
 1457W        W 4222   4.141   3.186   6.180  0.1041 -0.0334 -0.2079
 1458W        W 4223   7.327   1.164   5.683  0.1281  0.1146  0.2581
 1459W        W 4224   7.250   2.765   6.138 -0.1961  0.2391  0.0684
 1460W        W 4225   2.384   1.131   6.477 -0.3708 -0.4310 -0.0820
 1461W        W 4226   2.410   8.198   0.111 -0.0189 -0.0634 -0.0002
 1462W        W 4227   0.575   5.835   7.049  0.2912  0.0238  0.3012
 1463W        W 4228   6.947   3.489   6.843  0.2960  0.0981  0.1571
 1464W        W 4229   4.893   9.134   6.096  0.0668 -0.2390 -0.2337
 1465W        W 4230   9.087   6.996   0.606 -0.0378  0.4882  0.1476
 1466W        W 4231   5.934   5.025   0.839  0.4648 -0.1142  0.2049
 1467W        W 4232   6.177   3.261   0.833  0.2345 -0.3159  0.0933
 1468W        W 4233   0.570   8.208   6.656 -0.0046 -0.1128 -0.0650
 1469W        W 4234   7.674   2.950   6.469  0.1864  0.1768 -0.0925
 1470W        W 4235   0.818   7.491   1.673 -0.2935 -0.0633  0.0778
 1471W        W 4236   0.953   2.827   5.822 -0.4177 -0.2907  0.1783
 1472W        W 4237   0.352   2.232   0.439 -0.1362 -0.2405  0.2465
 1473W        W 4238   6.027   1.499   6.322  0.0147 -0.1027  0.0797
 1474W        W 4239   7.516   1.386   6.982 -0.2260  0.1415 -0.1963
 1475W        W 4240   8.630   4.529   5.808  0.0981 -0.2013  0.0185
 1476W        W 4241   0.245   4.430   7.039 -0.0511 -0.0852 -0.3216
 1477W        W 4242   4.559   4.763   5.483 -0.1414 -0.1725 -0.2688
 1478W        W 4243   4.249   7.162   6.133  0.1205  0.0829 -0.0659
 1479W        W 4244   3.398   0.045   0.104  0.1875  0.2950 -0.2549
 1480W        W 4245   0.635   3.495   5.467 -0.0777 -0.4695  0.2443
 1481W        W 4246   7.920   4.517   6.556 -0.2789 -0.0509 -0.2347
 1482W        W 4247   8.850   6.034   5.217  0.4508 -0.0792 -0.1403
 1483W        W 4248   0.506   8.203   1.947  0.3332 -0.0433 -0.0024
 1484W        W 4249   2.581   4.126   0.322 -0.1125 -0.1205  0.1496
 1485W        W 4250   5.154   6.189   6.514  0.1956  0.0153 -0.0746
 1486W        W 4251   7.174   8.046   0.152 -0.2115 -0.0102 -0.1460
 1487W        W 4252   3.614   4.612   7.009 -0.1219 -0.1677 -0.2905
 1488W        W 4253   2.143   4.806   0.806  0.3215  0.0337 -0.0635
 1489W        W 4254   0.159   8.611   6.002  0.1603  0.2412  0.0802
 1490W        W 4255   2.798   6.314   6.634 -0.2659 -0.2882 -0.0656
 1491W        W 4256   0.066   5.613   6.545 -0.4303 -0.0392 -0.2562
 1492W        W 4257   2.302   3.854   1.345 -0.2872 -0.1058  0.0436
 1493W        W 4258   3.544   8.121   0.385 -0.0918 -0.1091  0.1067
 1494W        W 4259   7.978   3.634   7.003  0.0506 -0.2993  0.2602
 1495W        W 4260   7.676   1.623   0.696  0.1056 -0.1935 -0.5367
 1496W        W 4261   5.241   7.590   0.738  0.0666 -0.0241  0.2019
 1497W        W 4262   0.423   1.771   1.525 -0.3812 -0.1620 -0.1520
 1498W        W 4263   6.502   1.213   1.152  0.2529  0.1246 -0.5792
 1499W        W 4264   6.311   5.371   6.392 -0.0694  0.1010  0.2176
 1500W        W 4265   7.044   1.168   6.141  0.1808 -0.1192  0.3218
 1501W        W 4266   6.270   2.558   6.234  0.3502  0.0848 -0.1508
 1502W        W 4267   4.345   5.690   1.846  0.0020 -0.2910 -0.1679
 1503W        W 4268   0.957   1.234   5.669  0.0752 -0.0411  0.0624
 1504W        W 4269   8.747   1.785   0.252  0.0703 -0.0787 -0.1497
 1505W        W 4270   8.551   5.665   6.522 -0.1151 -0.0503  0.0076
 1506W        W 4271   4.432   5.976   0.530 -0.0475 -0.0428  0.2138
 1507W        W 4272   8.877   3.533   0.129  0.0533 -0.1716  0.1627
 1508W        W 4273   4.878   3.215   6.726 -0.2528 -0.2457 -0.0957
 1509W        W 4274   4.414   7.405   6.623  0.0805  0.3291 -0.1306
 1510W        W 4275   3.465   2.263   0.775 -0.0447  0.1749  0.0318
 1511W        W 4276   7.270   1.802   6.806  0.0957 -0.0413  0.0916
 1512W        W 4277   3.570   1.997   6.930 -0.1984  0.1324 -0.0729
 1513W        W 4278   4.642   1.031   6.912 -0.1369 -0.1307  0.0131
 1514W        W 4279   6.249   0.550   0.102  0.1247 -0.0440 -0.2565
 1515W        W 4280   6.373   3.175   1.392 -0.1723 -0.0630 -0.5094
 1516W        W 4281   2.930   0.421   1.862 -0.2389 -0.1681  0.0189
 1517W        W 4282   3.953   7.728   0.396 -0.1142  0.1123  0.0730
 1518W        W 4283   5.225   2.234   6.358 -0.1889 -0.1045  0.0557
 1519W        W 4284   1.744   7.840   5.880  0.1096 -0.2486  0.1968
 1520W        W 4285   0.351   3.606   0.662 -0.0546 -0.1219  0.4863
 1521W        W 4286   8.333   2.755   0.312 -0.0329  0.0209  0.1284
 1522W        W 4287   4.742   7.896   1.719  0.2015 -0.1138 -0.0596
 1523W        W 4288   0.115   2.066   6.629  0.0842  0.2744  0.2605
 1524W        W 4289   6.941   7.198   1.873  0.2196 -0.1370 -0.0397
 1525W        W 4290   5.320   7.807   5.729  0.3018  0.1472  0.0090
 1526W        W 4291   1.841   1.114   2.116 -0.0866 -0.0812  0.2333
 1527W        W 4292   2.369   7.914   1.221 -0.1251 -0.0152  0.0308
 1528W        W 4293   2.982   5.081   1.303 -0.2128 -0.2767 -0.3048
 1529W        W 4294   2.946   6.585   7.075  0.0284 -0.0319  0.0692
 1530W        W 4295   4.900   0.783   0.084 -0.2038  0.2163  0.3150
 1531W        W 4296   8.270   8.437   0.390 -0.1803 -0.0263  0.0297
 1532W        W 4297   5.577   6.734   5.550  0.0537  0.1321  0.0386
 1533W        W 4298   6.252   5.012   5.964 -0.1408  0.1681 -0.2572
 1534W        W 4299   3.090   6.391   0.773 -0.2122  0.2899  0.2154
 1535W        W 4300   7.332   7.804   1.301 -0.0405 -0.2320  0.0782
 1536W        W 4301   5.144   4.633   5.599  0.1108  0.1529 -0.0828
 1537W        W 4302   7.533   6.891   6.627 -0.0905  0.2055 -0.0032
 1538W        W 4303   3.743   1.195   0.413  0.2101  0.2481  0.3201
 1539W        W 4304   0.740   7.541   0.810  0.0511 -0.0675  0.0466
 1540W        W 4305   5.219   1.479   0.469 -0.0284 -0.1241  0.1619
 1541W        W 4306   1.604   8.136   1.925  0.0212 -0.0450 -0.0021
 1542W        W 4307   0.464   7.715   6.488  0.0770  0.1663 -0.3375
 1543W        W 4308   8.002   8.953   0.418 -0.2242 -0.2148 -0.0188
 1544W        W 4309   8.591   0.615   7.040 -0.1025  0.0367 -0.0869
 1545W        W 4310   5.956   1.749   1.115 -0.3596 -0.2880  0.1503
 1546W        W 4311   0.809   1.522   5.265 -0.2279 -0.3960  0.0475
 1547W        W 4312   1.296   8.088   1.539 -0.2187 -0.0926 -0.2926
 1548W        W 4313   5.311   2.363   0.288 -0.1926 -0.0679  0.0188
 1549W        W 4314   8.047   7.783   1.507  0.1133 -0.1393 -0.1373
 1550W        W 4315   5.089   5.004   0.682 -0.2740 -0.3992 -0.2737
 1551W        W 4316   6.650   7.138   6.208  0.0073 -0.0023 -0.1705
 1552W        W 4317   5.876   6.871   1.024 -0.1212  0.1039  0.1144
 1553W        W 4318   5.115   4.125   0.141  0.1416 -0.1788  0.0086
 1554W        W 4319   7.877   0.607   2.069 -0.2096 -0.0088  0.2689
 1555W        W 4320   7.827   4.627   5.953  0.0032 -0.1554 -0.2372
 1556W        W 4321   7.305   1.400   6.535  0.3337 -0.0154  0.0455
 1557W        W 4322   5.077   1.901   0.840 -0.0758  0.0636 -0.0109
 1558W        W 4323   0.519   2.913   6.043 -0.0153 -0.1436  0.1203
 1559W        W 4324   1.055   4.095   0.452  0.1081 -0.1669 -0.1638
 1560W        W 4325   2.081   2.102   6.235 -0.0294 -0.0345 -0.1873
 1561W        W 4326   7.245   4.133   0.023 -0.2347  0.1471  0.1891
 1562W        W 4327   8.996   0.804   0.777  0.0624  0.3667  0.2553
 1563W        W 4328   0.032   1.245   6.621  0.0315  0.3412 -0.0063
 1564W        W 4329   8.931   5.760   5.665  0.0293 -0.1964 -0.0393
 1565W        W 4330   3.904   0.423   6.041  0.1503 -0.0150 -0.2490
 1566W        W 4331   1.478   8.486   6.358  0.1231  0.3000 -0.0379
 1567W        W 4332   3.300   2.414   7.059  0.5078 -0.0858 -0.2925
 1568W        W 4333   3.316   4.241   1.481 -0.0537 -0.0157 -0.3224
 1569W        W 4334   2.052   2.908   0.228 -0.0577 -0.3877 -0.0397
 1570W        W 4335   3.510   8.713   5.295 -0.2232 -0.1282  0.0274
 1571W        W 4336   7.539   3.200   0.577 -0.2732 -0.2094  0.3730
 1572W        W 4337   4.015   6.050   6.243  0.2517 -0.1592  0.0950
 1573W        W 4338   7.769   0.738   6.312  0.0428  0.0672 -0.1091
 1574W        W 4339   8.676   7.218   1.502  0.3801  0.0240  0.1509
 1575W        W 4340   7.200   1.271   1.724  0.2162  0.1880  0.0396
 1576W        W 4341   4.784   2.341   6.986  0.0352 -0.1209 -0.2266
 1577W        W 4342   8.951   1.663   5.902  0.0500  0.1766  0.3191
 1578W        W 4343   4.870   6.612   6.629  0.2889 -0.1901  0.2069
 1579W        W 4344   2.641   5.852   6.234 -0.4964  0.0797  0.0435
 1580W        W 4345   0.975   6.915   6.211 -0.1850  0.0223 -0.1212
 1581W        W 4346   8.149   8.640   5.714  0.0067 -0.0497  0.0594
 1582W        W 4347   1.016   8.495   5.469 -0.0870  0.0319 -0.0020
 1583W        W 4348   0.519   5.260   6.703 -0.2348  0.5845 -0.1916
 1584W        W 4349   4.765   2.759   1.241  0.3743 -0.4404  0.0905
 1585W        W 4350   3.772   1.291   2.184 -0.2586 -0.2130 -0.2077
 1586W        W 4351   1.175   0.290   0.641  0.1816  0.2480 -0.2495
 1587W        W 4352   8.257   2.317   6.955  0.3237 -0.4412  0.2563
 1588W        W 4353   4.436   6.545   6.850 -0.1009 -0.2799  0.0920
 1589W        W 4354   5.411   5.134   6.941 -0.1137 -0.1275  0.1401
 1590W        W 4355   6.341   8.921   6.589  0.0758 -0.0852  0.0018
 1591W        W 4356   8.023   1.465   6.005 -0.0168  0.0611 -0.2031
 1592W        W 4357   0.949   5.911   4.883 -0.2036 -0.0975  0.2019
 1593W        W 4358   0.029   6.245   5.530 -0.1347 -0.1303 -0.0622
 1594W        W 4359   6.749   0.535   6.862 -0.1651  0.0545  0.0762
 1595W        W 4360   3.161   8.426   6.142  0.0318 -0.0778  0.1212
 1596W        W 4361   9.020   3.476   0.620 -0.1438 -0.0075  0.0160
 1597W        W 4362   8.381   2.193   0.992 -0.1601  0.1263  0.0218
 1598W        W 4363   6.188   2.306   0.373 -0.2802 -0.1511  0.1688
 1599W        W 4364   8.626   6.750   0.321  0.1222 -0.2639 -0.0968
 1600W        W 4365   4.889   1.270   1.887  0.0731 -0.1163  0.1221
 1601W        W 4366   2.261   5.159   5.508  0.0980 -0.1542  0.3399
 1602W        W 4367   7.225   7.623   0.571 -0.1230 -0.1185  0.3433
 1603W        W 4368   5.312   4.798   6.064  0.0672  0.1340  0.1592
 1604W        W 4369   8.199   2.056   5.467  0.1252 -0.1530 -0.1876
 1605W        W 4370   6.249   3.814   0.267 -0.1814 -0.2962  0.1186
 1606W        W 4371   6.329   3.001   5.952  0.0520  0.0094  0.0252
 1607W        W 4372   8.377   0.323   1.180  0.1067  0.0315 -0.3088
 1608W        W 4373   4.337   8.413   6.941 -0.0407 -0.0745  0.0724
 1609W        W 4374   5.289   8.659   6.893 -0.0898 -0.0690  0.1046
 1610W        W 4375   1.617   3.894   6.388  0.0269  0.1800  0.2587
 1611W        W 4376   5.686   1.404   0.399  0.0321  0.0908 -0.0152
 1612W        W 4377   0.833   5.804   6.609  0.3520  0.1315  0.1473
 1613W        W 4378   6.621   8.006   6.695 -0.5111 -0.0319 -0.3051
 1614W        W 4379   4.423   4.696   1.817  0.0315 -0.0285 -0.2371
 1615W        W 4380   8.755   0.774   1.315 -0.0394 -0.4665  0.1602
 1616W        W 4381   5.986   7.570   1.217  0.0162 -0.0154  0.1852
 1617W        W 4382   7.565   2.320   0.644 -0.0918 -0.0985  0.0891
 1618W        W 4383   7.388   4.278   5.265 -0.2078  0.0223 -0.2219
 1619W        W 4384   6.028   2.606   5.796  0.2159 -0.3465 -0.2053
 1620W        W 4385   5.904   3.614   0.010  0.0543  0.0385  0.0151
 1621W        W 4386   4.341   0.354   5.300  0.1294 -0.1688  0.1619
 1622W        W 4387   3.445   9.120   5.653 -0.0610 -0.1976  0.1317
 1623W        W 4388   2.188   2.932   1.571  0.2318 -0.0318 -0.1128
 1624W        W 4389   3.829   1.810   1.458  0.0051  0.0889 -0.1470
 1625W        W 4390   8.094   0.311   5.360 -0.0175  0.1726 -0.1135
 1626W        W 4391   1.590   4.064   0.885  0.3596  0.3180  0.4971
 1627W        W 4392   3.695   3.591   1.941  0.0723 -0.3201 -0.2588
 1628W        W 4393   0.490   1.172   6.727  0.1039 -0.1235  0.0421
 1629W        W 4394   0.163   6.858   1.000  0.1272  0.0109  0.5048
 1630W        W 4395   2.153   4.197   5.227 -0.0925 -0.1101 -0.0407
 1631W        W 4396   1.254   4.613   6.927 -0.0105  0.3320  0.3402
 1632W        W 4397   4.575   0.969   6.403 -0.3752  0.2275 -0.0009
 1633W        W 4398   3.514   4.034   6.921 -0.1253  0.1155  0.4081
 1634W        W 4399   3.421   6.657   6.776  0.0942  0.0992 -0.1014
 1635W        W 4400   4.801   1.442   6.041  0.0072 -0.3084  0.2016
 1636W        W 4401   5.540   8.505   6.447  0.0033  0.0948  0.0106
 1637W        W 4402   3.021   8.259   1.224 -0.1261  0.2152 -0.1856
 1638W        W 4403   1.474   7.249   5.828 -0.1817 -0.0779  0.1773
 1639W        W 4404   4.301   7.568   1.210 -0.1751  0.1161 -0.1250
 1640W        W 4405   0.775   7.139   5.412 -0.0856  0.1563  0.1602
 1641W        W 4406   5.091   7.146   1.456 -0.2929 -0.0009 -0.0190
 1642W        W 4407   8.782   4.778   6.782 -0.1546  0.1599 -0.1721
 1643W        W 4408   0.812   2.995   0.696 -0.0519  0.2851  0.2486
 1644W        W 4409   2.547   1.212   0.717 -0.3319 -0.2337 -0.0040
 1645W        W 4410   7.868   7.035   6.158 -0.0372  0.4671  0.2930
 1646W        W 4411   8.217   8.238   6.668  0.1528  0.0356  0.0930
 1647W        W 4412   0.147   5.695   5.310 -0.0418  0.1917 -0.1952
 1648W        W 4413   8.901   4.934   5.904  0.0676  0.1758  0.3182
 1649W        W 4414   8.932   9.006   6.277 -0.1144  0.2739  0.1159
 1650W        W 4415   6.424   2.842   1.008 -0.1159  0.2879 -0.1056
 1651W        W 4416   4.748   7.323   6.151  0.2301 -0.0257 -0.0846
 1652W        W 4417   1.012   3.757   5.747  0.1924 -0.1187 -0.2892
 1653W        W 4418   7.389   7.816   6.425  0.2325  0.0387  0.0546
 1654W        W 4419   8.782   0.722   1.818 -0.0975 -0.2337  0.0071
 1655W        W 4420   6.361   5.886   6.656  0.3502  0.0315  0.0033
 1656W        W 4421   4.276   6.871   1.380  0.0336  0.0821 -0.2185
 1657W        W 4422   0.619   3.733   6.473  0.0306  0.1231  0.1466
 1658W        W 4423   0.824   0.120   1.153  0.1996 -0.0825  0.2893
 1659W        W 4424   4.564   2.811   5.532 -0.1261  0.3438 -0.2212
 1660W        W 4425   5.100   7.478   7.101 -0.1050 -0.0591 -0.1578
 1661W        W 4426   2.854   8.793   1.233  0.0135 -0.1032  0.0426
 1662W        W 4427   3.148   5.553   0.348  0.0178 -0.4560  0.2385
 1663W        W 4428   2.014   8.378   6.451 -0.3021  0.4620 -0.0356
 1664W        W 4429   5.303   2.423   5.137 -0.2526  0.0702  0.2726
 1665W        W 4430   1.419   3.461   1.616 -0.0347  0.1598 -0.1304
 1666W        W 4431   4.207   3.329   6.663 -0.0473  0.1059  0.4526
 1667W        W 4432   2.361   6.217   6.273 -0.1762 -0.1326 -0.3497
 1668W        W 4433   4.571   3.600   1.236  0.2312 -0.0192 -0.3396
 1669W        W 4434   0.962   8.350   6.365 -0.0511 -0.1435 -0.0193
 1670W        W 4435   3.747   5.649   1.438  0.3309 -0.1232 -0.0914
 1671W        W 4436   5.003   2.621   6.036 -0.2379  0.1689  0.1420
 1672W        W 4437   0.978   1.486   0.288 -0.2462 -0.0330  0.2833
 1673W        W 4438   6.026   0.852   6.076  0.3048 -0.0880  0.2486
 1674W        W 4439   6.601   7.151   0.059  0.1740  0.1654  0.2512
 1675W        W 4440   8.497   1.382   0.079 -0.0405  0.1076 -0.1826
 1676W        W 4441   5.779   4.992   6.131 -0.3849  0.2459 -0.2459
 1677W        W 4442   0.447   8.230   6.187 -0.4361 -0.0327  0.4212
 1678W        W 4443   8.087   7.050   5.705 -0.1940 -0.0652  0.2494
 1679W        W 4444   4.528   1.490   6.540  0.0027 -0.2333  0.0487
 1680W        W 4445   2.838   8.347   6.958 -0.1537 -0.1229  0.1019
 1681W        W 4446   4.299   2.403   6.992  0.1021 -0.0363  0.0631
 1682W        W 4447   1.851   6.820   6.679  0.0194  0.0624  0.0176
 1683W        W 4448   4.449   7.061   0.408  0.2748  0.3796 -0.3661
 1684W        W 4449   5.855   8.041   6.297 -0.4940  0.1963  0.1790
 1685W        W 4450   8.127   2.283   1.417 -0.4535 -0.2822  0.2630
 1686W        W 4451   6.775   2.714   6.357  0.1009  0.1750  0.0332
 1687W        W 4452   7.618   7.585   0.294  0.1686 -0.2403  0.4566
 1688W        W 4453   0.057   8.290   6.834 -0.1755  0.2380 -0.1019
 1689W        W 4454   1.545   2.122   5.860 -0.4097 -0.0009  0.1967
 1690W        W 4455   2.544   8.336   1.004 -0.1009 -0.0133 -0.0860
 1691W        W 4456   1.348   0.504   6.081 -0.1198  0.0970 -0.3027
 1692W        W 4457   6.377   8.124   0.582  0.0200  0.0383 -0.0719
 1693W        W 4458   2.511   5.054   1.044  0.0525 -0.1024 -0.0437
 1694W        W 4459   6.528   1.680   0.443 -0.0723  0.2311  0.0761
 1695W        W 4460   2.092   6.736   0.537 -0.0914  0.0263  0.0379
 1696W        W 4461   8.684   1.027   6.492  0.2645 -0.1784 -0.2899
 1697W        W 4462   4.352   6.565   0.753  0.2284 -0.2307  0.0617
 1698W        W 4463   7.752   8.397   5.850 -0.1296  0.1628  0.1178
 1699W        W 4464   5.371   4.849   6.550  0.0429  0.0459  0.1386
 1700W        W 4465   4.456   2.484   0.389  0.1142 -0.0262  0.0528
 1701W        W 4466   2.635   2.550   0.847  0.4082 -0.1874 -0.3287
 1702W        W 4467   4.305   9.041   6.867 -0.1963 -0.2099 -0.1612
 1703W        W 4468   0.444   7.842   1.204  0.1068  0.0937 -0.3098
 1704W        W 4469   8.288   3.194   5.228  0.4003 -0.1618 -0.0192
 1705W        W 4470   9.002   3.057   6.117 -0.0488 -0.0314  0.3620
 1706W        W 4471   4.755   7.783   5.894  0.0845  0.3827 -0.1948
 1707W        W 4472   8.204   2.789   6.652 -0.1476 -0.0606  0.2452
 1708W        W 4473   8.133   1.069   0.398 -0.0236  0.0322 -0.1110
 1709W        W 4474   8.658   5.582   5.247 -0.1004  0.2164 -0.0401
 1710W        W 4475   6.783   2.032   0.675 -0.1103  0.1033  0.0001
 1711W        W 4476   6.151   8.409   0.171 -0.1018 -0.0673 -0.0041
 1712W        W 4477   1.304   0.278   6.635 -0.0317 -0.0729 -0.2335
 1713W        W 4478   7.019   5.430   0.930  0.0210  0.0057  0.1701
 1714W        W 4479   6.471   5.569   5.113 -0.0500  0.1843  0.1992
 1715W        W 4480   2.140   2.495   5.459  0.1509 -0.2426 -0.0655
 1716W        W 4481   7.469   8.286   1.643  0.2174  0.4332 -0.1027
 1717W        W 4482   0.705   7.724   2.126  0.0937  0.2129  0.2583
 1718W        W 4483   0.853   8.908   0.687 -0.2253 -0.0608  0.0666
 1719W        W 4484   5.783   0.248   7.097 -0.1187 -0.2450 -0.1815
 1720W        W 4485   7.944   0.314   1.575 -0.1263 -0.1023  0.2062
 1721W        W 4486   4.277   3.371   0.798  0.1740  0.2705 -0.0014
 1722W        W 4487   8.261   5.944   1.440  0.1807  0.0112 -0.2842
 1723W        W 4488   6.124   5.077   0.220  0.0374 -0.5482 -0.0628
 1724W        W 4489   6.052   2.482   6.722  0.0281  0.0185  0.0769
 1725W        W 4490   4.125   6.645   6.015  0.1503  0.0757  0.2061
 1726W        W 4491   4.267   3.612   5.410 -0.3037 -0.0703 -0.1262
 1727W        W 4492   8.380   2.727   4.797  0.0591 -0.2869  0.0674
 1728W        W 4493   8.456   4.893   4.903 -0.1716 -0.1945 -0.0005
 1729W        W 4494   5.232   1.252   1.321  0.1635  0.1435 -0.1233
 1730W        W 4495   2.019   5.735   6.945 -0.0637 -0.1834 -0.3260
 1731W        W 4496   2.248   1.874   6.691  0.2464 -0.2001 -0.0486
 1732W        W 4497   0.876   5.182   5.016  0.2006  0.0880  0.1709
 1733W        W 4498   2.489   6.329   7.066 -0.1947  0.0877 -0.2000
 1734W        W 4499   7.173   2.879   0.450  0.0099 -0.0963  0.0771
 1735W        W 4500   5.728   4.584   1.013 -0.0068 -0.0071 -0.2273
 1736W        W 4501   9.050   0.526   4.910  0.4218  0.0206  0.3093
 1737W        W 4502   3.837   5.336   6.903  0.0266 -0.0014  0.3564
 1738W        W 4503   2.675   8.030   4.971 -0.3096 -0.1090  0.1665
 1739W        W 4504   7.702   5.188   4.923 -0.0739 -0.1540  0.0602
 1740W        W 4505   8.149   2.402   5.842  0.3794 -0.1942  0.0772
 1741W        W 4506   8.269   4.857   5.786 -0.0442 -0.4166 -0.2372
 1742W        W 4507   5.362   6.676   1.669  0.1393 -0.1401 -0.1978
 1743W        W 4508   6.585   3.837   0.654  0.0404 -0.2657  0.2650
 1744W        W 4509   6.524   4.739   0.320  0.1549  0.2246 -0.3395
 1745W        W 4510   3.098   8.752   0.003  0.0754 -0.1906  0.2518
 1746W        W 4511   3.407   0.441   1.179 -0.2611 -0.3709  0.0260
 1747W        W 4512   6.807   6.949   1.420 -0.0024  0.1108 -0.1274
 1748W        W 4513   2.811   3.640   0.457  0.2501  0.0815 -0.1263
 1749W        W 4514   0.513   7.363   1.310  0.0016 -0.1152  0.2016
 1750W        W 4515   6.971   4.936   0.659  0.3916  0.4119  0.2033
 1751W        W 4516   5.610   4.721   1.843  0.5113  0.0144 -0.3155
 1752W        W 4517   5.033   1.934   0.190 -0.1300 -0.2657  0.0389
 1753W        W 4518   3.356   6.817   0.312 -0.0677 -0.1629 -0.5042
 1754W        W 4519   6.982   2.225   6.360  0.2344  0.0656  0.1076
 1755W        W 4520   7.378   1.280   0.863  0.0091 -0.1779 -0.0039
 1756W        W 4521   3.195   7.636   0.870 -0.0478 -0.2108 -0.1946
 1757W        W 4522   8.803   0.440   6.499  0.0698 -0.0142 -0.0305
 1758W        W 4523   7.305   3.267   6.327 -0.2174 -0.0328 -0.3172
 1759W        W 4524   2.619   0.122   0.284 -0.2451 -0.0012 -0.1974
 1760W        W 4525   8.860   4.440   5.160  0.0740  0.0651  0.3901
 1761W        W 4526   8.188   0.654   0.150 -0.3255 -0.0035 -0.0265
 1762W        W 4527   7.829   5.393   6.275 -0.1780  0.1021  0.1046
 1763W        W 4528   3.399   6.437   1.264  0.0991 -0.2221 -0.1893
 1764W        W 4529   2.489   7.633   1.696 -0.3093 -0.0012 -0.0074
 1765W        W 4530   5.645   0.970   1.547  0.1057 -0.0710 -0.0540
 1766W        W 4531   1.232   7.982   6.829  0.2039 -0.0186 -0.0701
 1767W        W 4532   5.712   7.047   0.029  0.1246  0.1503  0.1637
 1768W        W 4533   2.537   7.332   6.911  0.0360  0.0032  0.0880
 1769W        W 4534   1.870   8.735   0.442 -0.0437 -0.0885 -0.3136
 1770W        W 4535   2.578   2.260   5.498  0.2061  0.0288 -0.1912
 1771W        W 4536   6.584   7.169   1.035 -0.1822  0.0032 -0.2647
 1772W        W 4537   4.801   5.474   5.819  0.1167 -0.1024  0.4558
 1773W        W 4538   4.268   4.078   1.248 -0.0450 -0.0668 -0.2248
 1774W        W 4539   3.224   8.443   6.634 -0.4012 -0.0498 -0.1271
 1775W        W 4540   7.441   2.813   0.902 -0.0780 -0.0226  0.0420
 1776W        W 4541   4.877   9.096   0.170 -0.3549  0.1074  0.0737
 1777W        W 4542   8.852   2.159   1.185  0.0322  0.0597  0.0093
 1778W        W 4543   0.515   6.960   0.048  0.0447  0.1034 -0.1482
 1779W        W 4544   7.831   4.058   0.647  0.0531 -0.2525 -0.0765
 1780W        W 4545   4.444   3.117   1.223 -0.3415 -0.1940  0.0489
 1781W        W 4546   4.883   8.251   6.887  0.3739  0.3168  0.0296
 1782W        W 4547   6.726   0.149   1.035 -0.0664 -0.1808 -0.2206
 1783W        W 4548   0.654   5.725   5.271 -0.2418 -0.1408  0.0500
 1784W        W 4549   5.396   7.204   5.644 -0.0201  0.1125 -0.1141
 1785W        W 4550   1.813   4.803   6.226  0.1201 -0.0766  0.2493
 1786W        W 4551   2.396   1.172   5.504 -0.2506 -0.5240 -0.2877
 1787W        W 4552   2.052   4.267   0.791  0.1605 -0.0225  0.3166
 1788W        W 4553   0.613   4.695   5.988 -0.1585 -0.0116  0.0168
 1789W        W 4554   0.774   5.399   7.073 -0.2541  0.1128  0.0674
 1790W        W 4555   7.443   0.351   6.401  0.0329  0.0538  0.1078
 1791W        W 4556   9.019   4.261   5.765  0.3169  0.0313  0.3313
 1792W        W 4557   3.410   3.867   6.401 -0.1805 -0.0507 -0.0627
 1793W        W 4558   5.691   8.503   0.860  0.2166  0.1316 -0.0909
 1794W        W 4559   0.802   8.074   1.041 -0.5144  0.2724 -0.0784
 1795W        W 4560   4.414   3.907   0.817 -0.0732  0.0885 -0.2810
 1796W        W 4561   5.643   7.098   1.434 -0.0067  0.1040 -0.1296
 1797W        W 4562   4.332   4.614   1.256 -0.0511  0.1129  0.0019
 1798W        W 4563   8.519   3.424   0.656 -0.0720  0.0945 -0.0351
 1799W        W 4564   8.419   6.991   1.129  0.2353  0.0869  0.0007
 1800W        W 4565   7.731   0.179   0.275 -0.0906 -0.3456  0.0459
 1801W        W 4566   1.243   3.565   0.054 -0.1967  0.2047 -0.2844
 1802W        W 4567   1.023   8.518   1.011 -0.0663  0.2419 -0.3928
 1803W        W 4568   8.274   1.881   6.603  0.1757 -0.0031 -0.0677
 1804W        W 4569   1.500   6.396   5.593  0.1084 -0.2832 -0.1479
 1805W        W 4570   7.524   1.842   0.242 -0.0491  0.2244 -0.1349
 1806W        W 4571   0.230   4.905   0.803 -0.1377  0.0160 -0.1450
 1807W        W 4572   2.474   6.376   1.341 -0.0379 -0.3380 -0.2068
 1808W        W 4573   0.295   3.103   0.765 -0.0795  0.0324  0.0013
 1809W        W 4574   1.564   2.145   6.895 -0.0323  0.0055 -0.1275
 1810W        W 4575   8.133   5.545   5.767  0.1027 -0.2212  0.1605
 1811W        W 4576   7.316   7.397   6.664 -0.1706  0.1176 -0.1036
 1812W        W 4577   0.722   3.565   6.979  0.0434 -0.2117  0.2946
 1813W        W 4578   8.721   3.259   1.120 -0.1717 -0.7777  0.2579
 1814W        W 4579   0.806   1.899   6.428 -0.0291  0.0860 -0.3151
 1815W        W 4580   5.085   1.761   1.990 -0.0720  0.2143  0.4323
 1816W        W 4581   1.073   0.042   6.134 -0.0136  0.1579 -0.0198
 1817W        W 4582   0.631   4.349   6.426  0.1238  0.2179 -0.0450
 1818W        W 4583   3.649   0.641   5.278  0.2893 -0.1439  0.0619
 1819W        W 4584   6.467   6.395   6.850  0.1227 -0.0831  0.0260
 1820W        W 4585   1.267   5.336   7.092 -0.2262 -0.1050  0.3836
 1821W        W 4586   0.584   5.069   0.545 -0.0731 -0.0074  0.2031
 1822W        W 4587   2.459   2.688   6.283  0.1401  0.0823  0.0849
 1823W        W 4588   4.228   5.290   1.228  0.1315  0.0651 -0.0047
 1824W        W 4589   5.419   3.754   0.128  0.0142 -0.1407 -0.2960
 1825W        W 4590   9.100   8.159   1.973  0.2272  0.0516  0.2126
 1826W        W 4591   5.298   8.980   1.235 -0.2302  0.0305  0.2215
 1827W        W 4592   0.389   6.362   5.888  0.0409 -0.1059 -0.0125
 1828W        W 4593   8.206   4.141   1.318 -0.0657 -0.1730 -0.2391
 1829W        W 4594   7.282   5.171   5.494 -0.2972 -0.1818  0.1959
 1830W        W 4595   1.853   4.886   1.565  0.0338  0.0193  0.0714
 1831W        W 4596   4.194   7.938   0.032  0.1764  0.0755  0.1369
 1832W        W 4597   2.506   8.518   6.223  0.1202  0.0406  0.1003
 1833W        W 4598   0.042   8.006   6.428  0.0726  0.0115 -0.3233
 1834W        W 4599   2.388   2.143   0.782  0.3066  0.0987 -0.1644
 1835W        W 4600   2.692   7.199   0.838 -0.1036  0.0651  0.2226
 1836W        W 4601   8.532   5.787   5.943 -0.0105  0.1413 -0.0124
 1837W        W 4602   8.636   1.451   0.624  0.1818 -0.3668 -0.1119
 1838W        W 4603   0.857   6.747   0.944  0.3594 -0.1274  0.0498
 1839W        W 4604   4.122   4.532   0.147 -0.1019  0.1983  0.2756
 1840W        W 4605   4.881   3.189   0.168  0.0430  0.4506 -0.1811
 1841W        W 4606   6.140   7.164   6.886  0.0853 -0.2935 -0.1476
 1842W        W 4607   8.283   2.269   6.298  0.3203 -0.0330  0.2549
 1843W        W 4608   0.396   2.645   1.453  0.0835  0.1034  0.2760
 1844W        W 4609   1.369   0.890   2.084  0.1684 -0.0979  0.0308
 1845W        W 4610   9.067   1.750   1.275  0.1959  0.0651  0.2671
 1846W        W 4611   8.778   2.726   1.122  0.2906 -0.0433 -0.1654
 1847W        W 4612   2.931   7.957   0.168 -0.1431  0.1406  0.1417
 1848W        W 4613   3.676   8.605   6.252  0.2894 -0.2972  0.1489
 1849W        W 4614   8.545   6.556   6.752 -0.1899  0.1479 -0.1526
 1850W        W 4615   0.722   4.566   0.286 -0.0823 -0.1571  0.1007
 1851W        W 4616   0.037   7.462   6.516 -0.2734 -0.0246  0.1562
 1852W        W 4617   2.030   7.509   1.266  0.0594  0.1776 -0.4076
 1853W        W 4618   5.731   0.935   6.531  0.0522 -0.1217  0.0050
 1854W        W 4619   3.946   5.170   6.325  0.1902  0.4018  0.0086
 1855W        W 4620   4.828   2.688   0.728 -0.4236  0.0442  0.0865
 1856W        W 4621   0.168   2.608   7.057  0.0853  0.0882  0.3341
 1857W        W 4622   4.193   0.675   1.444  0.1963  0.1763 -0.0979
 1858W        W 4623   5.914   1.761   5.843  0.1126  0.1436  0.0148
 1859W        W 4624   3.633   3.716   0.156 -0.0757  0.1062 -0.0470
 1860W        W 4625   8.458   6.799   1.682  0.0756  0.0724 -0.0508
 1861W        W 4626   0.753   8.757   1.360  0.0489 -0.1909  0.1243
 1862W        W 4627   6.769   5.555   1.350 -0.2467  0.0019  0.0311
 1863W        W 4628   7.025   3.454   0.531  0.4240  0.2340  0.0438
 1864W        W 4629   7.986   7.186   0.950 -0.1153  0.0014 -0.0472
 1865W        W 4630   2.217   1.180   1.768  0.0264  0.2615 -0.1977
 1866W        W 4631   3.075   1.400   1.478  0.0722 -0.1306 -0.0357
 1867W        W 4632   6.548   0.897   6.113  0.0602 -0.2114 -0.0969
 1868W        W 4633   7.214   4.321   6.058  0.2175 -0.0160  0.0801
 1869W        W 4634   7.597   3.809   6.226  0.0292  0.0520 -0.0110
 1870W        W 4635   1.833   1.497   5.461 -0.2291 -0.4542  0.0628
 1871W        W 4636   8.470   0.467   5.685 -0.0635  0.2794 -0.1126
 1872W        W 4637   6.765   4.322   0.675  0.0122  0.2440 -0.2095
 1873W        W 4638   6.534   1.671   5.708  0.1207 -0.1957  0.0624
 1874W        W 4639   5.105   1.745   1.355  0.1191  0.1346 -0.2491
 1875W        W 4640   7.334   4.254   1.546  0.1644  0.0087  0.1804
 1876W        W 4641   8.542   1.502   6.724  0.3159 -0.0774  0.3248
 1877W        W 4642   6.435   4.919   6.943 -0.2296 -0.0650  0.1933
 1878W        W 4643   1.540   4.201   0.268  0.0984 -0.0638  0.1809
 1879W        W 4644   6.329   7.942   1.430  0.2230  0.2928 -0.3842
 1880W        W 4645   0.540   3.225   6.503  0.1684  0.0133 -0.2937
 1881W        W 4646   0.903   0.794   5.927 -0.1689 -0.2760  0.2655
 1882W        W 4647   7.773   1.168   6.593 -0.0885  0.0663  0.1395
 1883W        W 4648   7.599   4.236   5.726 -0.4187 -0.0652  0.0488
 1884W        W 4649   3.931   1.671   1.955  0.0164 -0.0126  0.1057
 1885W        W 4650   3.972   2.230   1.020 -0.2330 -0.2208  0.1194
 1886W        W 4651   9.043   6.704   6.753  0.2098  0.2222  0.0646
 1887W        W 4652   7.773   7.486   6.441 -0.0414  0.1674 -0.0208
 1888W        W 4653   5.333   8.638   5.994  0.0733 -0.1750  0.0843
 1889W        W 4654   6.365   5.273   1.026 -0.0549 -0.0008 -0.0201
 1890W        W 4655   4.913   5.058   6.848 -0.0906 -0.0447  0.1311
 1891W        W 4656   3.042   0.501   0.814 -0.2719  0.1176  0.0911
 1892W        W 4657   0.100   8.114   1.492 -0.0393  0.0261  0.0905
 1893W        W 4658   0.343   1.560   6.383  0.2115  0.2127 -0.3234
 1894W        W 4659   2.321   5.874   0.192 -0.5608 -0.1281  0.1675
 1895W        W 4660   0.206   3.427   6.228 -0.0639  0.3969 -0.0061
 1896W        W 4661   8.931   0.064   5.360  0.2965  0.2812 -0.2106
 1897W        W 4662   0.412   2.649   0.753  0.1000  0.2373 -0.1213
 1898W        W 4663   7.247   1.793   0.853  0.4132 -0.1982  0.0555
 1899W        W 4664   0.159   0.666   5.913  0.2631 -0.0696 -0.1365
 1900W        W 4665   5.330   6.793   1.195  0.1164 -0.0331  0.0297
 1901W        W 4666   8.959   7.594   0.619  0.1784 -0.2062 -0.0175
 1902W        W 4667   6.060   2.006   6.315 -0.4059  0.0043  0.0739
 1903W        W 4668   7.756   1.479   1.722  0.1289 -0.1903 -0.3480
 1904W        W 4669   5.012   5.492   7.028 -0.0210  0.2173  0.0100
 1905W        W 4670   4.065   3.277   1.982 -0.2578  0.2174  0.0200
 1906W        W 4671   4.954   7.321   0.437 -0.2779 -0.1982  0.0709
 1907W        W 4672   3.441   5.557   0.756  0.3962 -0.2119 -0.0166
 1908W        W 4673   4.617   1.715   1.069 -0.0094 -0.4586  0.0510
 1909W        W 4674   7.770   8.966   5.730 -0.1098  0.0362  0.0336
 1910W        W 4675   5.203   1.256   2.399 -0.0616  0.0301  0.0857
 1911W        W 4676   1.540   6.513   6.892 -0.2953 -0.0499 -0.2744
 1912W        W 4677   3.793   1.150   6.524 -0.2383  0.1327  0.0312
 1913W        W 4678   6.641   3.009   0.495  0.1081 -0.1647  0.0311
 1914W        W 4679   8.905   8.760   0.176  0.0023  0.0146  0.4511
 1915W        W 4680   4.566   7.295   1.578  0.2215  0.1877 -0.1616
 1916W        W 4681   5.134   3.085   6.252 -0.0836 -0.2060  0.0304
 1917W        W 4682   8.089   7.750   0.983  0.0118  0.0711 -0.0071
 1918W        W 4683   7.118   3.908   6.326  0.0530 -0.2311 -0.1138
 1919W        W 4684   5.988   5.525   6.084  0.2218 -0.2139 -0.3219
 1920W        W 4685   7.910   4.576   0.564 -0.0378  0.0825  0.1112
 1921W        W 4686   3.587   8.587   5.755 -0.1546 -0.0881  0.0288
 1922W        W 4687   3.835   7.828   5.542  0.3320 -0.0260  0.2590
 1923W        W 4688   1.314   6.899   1.078  0.0543 -0.2825  0.0313
 1924W        W 4689   7.499   8.383   0.952 -0.3530 -0.3136 -0.1343
 1925W        W 4690   1.687   7.659   5.383 -0.3049 -0.1909  0.0456
 1926W        W 4691   3.533   2.619   0.351  0.0239 -0.0120  0.1187
 1927W        W 4692   1.358   6.130   5.984  0.3168 -0.1330 -0.1391
 1928W        W 4693   0.933   6.239   6.217  0.1829 -0.2037 -0.2470
 1929W        W 4694   8.560   4.362   0.435 -0.1123  0.3847  0.1086
 1930W        W 4695   3.413   2.345   1.353  0.0939 -0.2161  0.0518
 1931W        W 4696   8.512   1.091   0.928  0.1828 -0.0330 -0.1645
 1932W        W 4697   1.931   0.138   6.771  0.2551  0.2340  0.1775
 1933W        W 4698   1.926   4.872   5.727 -0.0583 -0.1000 -0.2949
 1934W        W 4699   0.315   1.997   6.140 -0.3257  0.0393 -0.5708
 1935W        W 4700   8.635   2.667   6.996 -0.0356 -0.3739  0.2547
 1936W        W 4701   5.780   7.768   5.887  0.1158  0.1861 -0.1285
 1937W        W 4702   4.292   6.978   7.031  0.1257 -0.2955  0.0806
 1938W        W 4703   9.019   2.378   0.768 -0.1974  0.0691 -0.1999
 1939W        W 4704   2.854   7.807   1.363  0.0748 -0.0312  0.2536
 1940W        W 4705   1.398   6.656   6.077  0.0435  0.3155  0.3192
 1941W        W 4706   5.341   6.201   1.746  0.4247  0.1011  0.0432
 1942W        W 4707   8.617   7.019   6.601 -0.0480  0.0620 -0.1431
 1943W        W 4708   4.493   3.443   7.073  0.2285 -0.1535  0.0044
 1944W        W 4709   4.306   4.204   0.449  0.0479 -0.0227  0.3629
 1945W        W 4710   4.007   1.727   6.448  0.0383  0.1395  0.0415
 1946W        W 4711   0.970   1.034   6.567 -0.0671  0.3244  0.1903
 1947W        W 4712   3.473   8.725   0.381  0.2140 -0.1654  0.1906
 1948W        W 4713   8.239   6.535   0.936 -0.0124 -0.1402  0.1425
 1949W        W 4714   0.745   6.763   4.992 -0.1098 -0.1610 -0.0788
 1950W        W 4715   8.848   5.946   0.194  0.1881  0.1864  0.0781
 1951W        W 4716   1.993   5.225   1.211  0.1872  0.0337 -0.0540
 1952W        W 4717   4.534   2.148   5.597 -0.1689 -0.0951  0.1188
 1953W        W 4718   1.774   0.087   1.139  0.1218  0.0212  0.1261
 1954W        W 4719   7.439   8.929   0.378 -0.0309  0.0685 -0.0134
 1955W        W 4720   1.603   1.005   1.083  0.0791  0.2091  0.1671
 1956W        W 4721   7.899   1.502   0.274 -0.2789 -0.1341  0.2485
 1957W        W 4722   4.902   7.592   1.338 -0.1193  0.2687  0.0616
 1958W        W 4723   5.170   8.307   0.613  0.3595  0.0218  0.0385
 1959W        W 4724   4.071   1.824   5.781  0.0944  0.0482 -0.1508
 1960W        W 4725   5.120   4.243   1.573  0.4574 -0.0761 -0.1944
 1961W        W 4726   4.873   5.461   0.819 -0.2226  0.0852  0.0272
 1962W        W 4727   1.477   6.326   6.421  0.0358 -0.1185  0.1540
 1963W        W 4728   4.437   4.927   6.591  0.0465  0.0362 -0.1826
 1964W        W 4729   5.607   8.423   5.204 -0.0389  0.1898 -0.1940
 1965W        W 4730   7.093   5.155   4.999 -0.0120 -0.2160 -0.0157
 1966W        W 4731   2.907   0.456   5.721  0.1100  0.1648  0.1161
 1967W        W 4732   1.064   3.180   1.228  0.1195 -0.1092  0.2827
 1968W        W 4733   3.981   0.975   1.817  0.0418  0.1877 -0.1741
 1969W        W 4734   8.456   8.692   6.427  0.0198 -0.1148 -0.2064
 1970W        W 4735   7.433   4.386   0.636 -0.0436 -0.1114  0.2777
 1971W        W 4736   0.641   2.405   6.095  0.0943  0.0074  0.2381
 1972W        W 4737   3.144   5.684   6.105 -0.0512 -0.0885 -0.1552
 1973W        W 4738   7.011   2.959   6.682 -0.1317 -0.0465 -0.2230
 1974W        W 4739   8.742   2.058   6.764  0.3574  0.1543 -0.2421
 1975W        W 4740   0.730   7.706   4.715  0.3331 -0.0818  0.1566
 1976W        W 4741   3.698   0.785   1.429  0.0227  0.0491 -0.1716
 1977W        W 4742   3.121   1.901   0.039  0.1253 -0.1353 -0.2586
 1978W        W 4743   1.942   8.438   7.066  0.0219  0.0562  0.3017
 1979W        W 4744   1.753   8.742   6.729  0.2359 -0.0212  0.4803
 1980W        W 4745   5.604   0.022   1.568  0.3864 -0.4295  0.1163
 1981W        W 4746   4.383   6.384   6.376 -0.1193  0.1759  0.2446
 1982W        W 4747   6.440   4.107   5.416 -0.0559 -0.0293  0.2195
 1983W        W 4748   4.965   0.894   1.146  0.1423  0.2107  0.1264
 1984W        W 4749   6.823   3.323   6.351  0.0283  0.0706  0.0845
 1985W        W 4750   0.885   6.333   7.035 -0.0887 -0.1839  0.3484
 1986W        W 4751   7.368   7.374   6.159  0.3183  0.0194 -0.2102
 1987W        W 4752   3.681   5.574   6.192 -0.0599 -0.0591  0.2057
 1988W        W 4753   4.085   0.944   0.732  0.1564  0.1902 -0.3692
 1989W        W 4754   4.801   0.186   5.582 -0.0505 -0.1843  0.0197
 1990W        W 4755   6.829   2.919   5.905 -0.1867 -0.1975 -0.0082
 1991W        W 4756   0.509   1.770   6.788  0.2436 -0.0076 -0.2908
 1992W        W 4757   0.531   7.256   4.932 -0.2133 -0.2203 -0.0919
 1993W        W 4758   3.349   0.458   0.366 -0.0327 -0.0469  0.0386
 1994W        W 4759   7.302   2.928   5.692  0.0631 -0.4724 -0.0233
 1995W        W 4760   5.258   8.046   1.540 -0.0303  0.0342 -0.0575
 1996W        W 4761   6.150   7.834   0.225 -0.1229  0.1784 -0.1226
 1997W        W 4762   6.545   1.612   7.106 -0.0805 -0.1643 -0.3976
 1998W        W 4763   5.784   2.269   0.012  0.0298  0.0386 -0.1704
 1999W        W 4764   2.261   2.825   0.664  0.1334  0.0273  0.1390
 2000W        W 4765   3.483   4.254   5.621  0.1364 -0.1637  0.1676
 2001W        W 4766   2.643   5.629   0.477  0.0550 -0.0665 -0.2656
 2002W        W 4767   7.168   4.580   1.054  0.2275 -0.1683  0.3089
 2003W        W 4768   0.453   9.023   0.961  0.3570  0.3711  0.0578
 2004W        W 4769   3.963   4.052   7.085  0.0789  0.1650 -0.0923
 2005W        W 4770   6.125   8.018   6.715 -0.1473 -0.2950 -0.3050
 2006W        W 4771   6.867   3.398   5.025  0.0726 -0.2215 -0.2103
 2007W        W 4772   7.878   3.097   0.957 -0.1853 -0.1297  0.0185
 2008W        W 4773   2.768   4.614   0.170 -0.0140  0.1973  0.0180
 2009W        W 4774   0.035   1.609   0.748 -0.0731  0.0731 -0.0800
 2010W        W 4775   8.396   6.113   6.390  0.1455  0.1524 -0.3938
 2011W        W 4776   5.996   3.413   5.943  0.0060  0.1673 -0.0937
 2012W        W 4777   8.280   8.114   1.171  0.1793 -0.0860 -0.0669
 2013W        W 4778   2.142   0.015   0.639 -0.3294  0.1057  0.2098
 2014W        W 4779   3.433   5.308   1.177  0.1380  0.0086 -0.1781
 2015W        W 4780   5.313   6.817   6.912 -0.4854 -0.3066  0.2372
 2016W        W 4781   0.430   5.250   5.277  0.1676  0.2205 -0.1616
 2017W        W 4782   8.612   5.224   6.769 -0.3273 -0.0038  0.2642
 2018W        W 4783   2.119   7.519   6.693 -0.0949  0.0528  0.0151
 2019W        W 4784   0.465   0.835   6.278  0.0137  0.0087 -0.2019
 2020W        W 4785   6.200   2.429   0.889  0.1021  0.2323  0.2954
 2021W        W 4786   7.031   7.785   6.752  0.4456  0.0293 -0.1511
 2022W        W 4787   6.719   6.118   6.419 -0.2311 -0.1072 -0.0647
 2023W        W 4788   2.993   1.394   7.025 -0.3109 -0.0787  0.3921
 2024W        W 4789   2.572   7.600   6.234  0.0224  0.4067  0.2433
 2025W        W 4790   2.980   2.884   0.632 -0.1167 -0.2115 -0.2643
 2026W        W 4791   8.543   5.761   1.062  0.0085  0.0732  0.2371
 2027W        W 4792   0.030   5.646   1.628 -0.0632 -0.0082  0.0033
 2028W        W 4793   8.040   0.651   6.730 -0.1620 -0.2127  0.0976
 2029W        W 4794   3.902   0.341   1.155  0.3026 -0.2606 -0.0450
 2030W        W 4795   7.718   7.502   1.261  0.2938  0.0472 -0.1478
 2031W        W 4796   7.150   6.217   0.836 -0.1747 -0.0103  0.3586
 2032W        W 4797   6.689   8.489   0.561  0.0189 -0.0810  0.0381
 2033W        W 4798   5.095   7.350   2.267 -0.0730  0.0532 -0.2329
 2034W        W 4799   1.490   8.670   0.124 -0.3145 -0.0156  0.3156
 2035W        W 4800   7.779   8.530   0.455 -0.0807 -0.2374  0.1479
 2036W        W 4801   3.112   7.244   1.244 -0.1442 -0.1784  0.2715
 2037W        W 4802   3.375   0.945   6.791 -0.1355  0.2781 -0.0599
 2038W        W 4803   3.523   2.083   1.779 -0.0089  0.1745  0.3189
 2039W        W 4804   0.436   2.542   5.654 -0.1623  0.0940  0.1428
 2040W        W 4805   5.042   7.477   1.812 -0.0487  0.1706 -0.3758
 2041W        W 4806   7.194   9.086   0.987 -0.1176  0.2274  0.1424
 2042W        W 4807   8.406   7.026   7.082  0.1337 -0.1837 -0.1750
 2043W        W 4808   7.884   3.123   6.987  0.1840  0.0180 -0.1171
 2044W        W 4809   6.168   7.152   1.420 -0.0709  0.0411 -0.0398
 2045W        W 4810   4.047   6.749   0.445 -0.0822 -0.1668 -0.0675
 2046W        W 4811   5.916   6.838   0.415  0.1068  0.2429  0.0419
 2047W        W 4812   5.655   7.601   1.722 -0.0133  0.0788  0.0442
 2048W        W 4813   2.106   1.209   1.230  0.2279 -0.3990 -0.1917
 2049W        W 4814   3.200   1.489   0.325  0.1239  0.2505 -0.2340
 2050W        W 4815   0.450   0.474   6.728  0.0658  0.1135  0.0146
 2051W        W 4816   9.070   1.304   0.417  0.3708 -0.1033  0.1067
 2052W        W 4817   7.532   6.808   5.176  0.2800 -0.1419  0.0939
 2053W        W 4818   4.153   6.469   1.577  0.1631  0.2925  0.1247
 2054W        W 4819   7.415   2.768   7.112 -0.3732  0.1387 -0.0267
 2055W        W 4820   7.536   5.219   0.073  0.1435  0.1190 -0.2191
 2056W        W 4821   5.447   4.444   0.645 -0.1112  0.1072  0.1767
 2057W        W 4822   8.011   7.371   0.053 -0.1961 -0.1064  0.0962
 2058W        W 4823   2.093   1.405   0.736  0.1204 -0.0123  0.0462
 2059W        W 4824   5.526   3.747   6.752  0.2670  0.0245  0.2389
 2060W        W 4825   1.325   8.690   0.552 -0.0321 -0.0242 -0.0169
 2061W        W 4826   4.606   3.581   0.451 -0.0642  0.0349  0.0817
 2062W        W 4827   4.550   8.729   0.211 -0.2411  0.2367  0.1074
 2063W        W 4828   7.685   7.911   5.628  0.0024  0.0813 -0.1271
 2064W        W 4829   3.685   3.555   0.670 -0.0788 -0.3231 -0.0443
 2065W        W 4830   1.603   0.066   0.120  0.0788 -0.3663 -0.0011
 2066W        W 4831   8.733   6.706   0.810  0.0915  0.2196  0.0357
 2067W        W 4832   7.775   5.173   1.327  0.0463  0.2772 -0.3884
 2068W        W 4833   0.672   3.518   6.045  0.1372 -0.1657  0.1065
 2069W        W 4834   7.026   1.836   0.129  0.1139  0.1093 -0.1004
 2070W        W 4835   0.053   6.034   6.929  0.2783 -0.1176  0.1945
 2071W        W 4836   2.481   0.035   1.320 -0.2515 -0.0270  0.1714
 2072W        W 4837   7.342   3.631   1.315 -0.1023  0.1608  0.2415
 2073W        W 4838   5.534   0.663   0.073  0.0673  0.0717 -0.1955
 2074W        W 4839   4.700   0.503   1.579  0.1071  0.1770 -0.4934
 2075W        W 4840   5.974   2.833   1.369  0.0355  0.2243 -0.1210
 2076W        W 4841   1.949   2.787   5.107 -0.4635  0.1410 -0.2747
 2077W        W 4842   3.623   2.018   5.999 -0.0728 -0.4043  0.2301
 2078W        W 4843   7.366   8.546   0.001 -0.0006  0.1456 -0.0897
 2079W        W 4844   3.946   0.700   6.857  0.2343 -0.4664  0.1075
 2080W        W 4845   5.478   6.220   6.818  0.0787 -0.2973 -0.1150
 2081W        W 4846   4.925   6.834   0.467 -0.2022 -0.2172  0.1154
 2082W        W 4847   5.485   7.923   6.602  0.0136  0.4114  0.1439
 2083W        W 4848   6.052   7.041   6.148  0.0227 -0.2164  0.1050
 2084W        W 4849   4.882   3.207   0.793  0.0671 -0.0023 -0.0578
 2085W        W 4850   7.881   7.523   5.930  0.1695  0.2502  0.1891
 2086W        W 4851   2.483   4.375   6.913 -0.3120 -0.0491  0.2734
 2087W        W 4852   4.011   8.688   6.630  0.0355 -0.1460  0.0316
 2088W        W 4853   5.064   2.980   1.811 -0.2442 -0.2187 -0.0118
 2089W        W 4854   7.320   2.583   6.662  0.1494  0.2125  0.0285
 2090W        W 4855   8.004   4.949   0.906 -0.3505  0.0006 -0.0921
 2091W        W 4856   2.519   4.935   6.910 -0.3643 -0.1209  0.0069
 2092W        W 4857   3.188   2.193   6.669 -0.2730  0.1640 -0.1800
 2093W        W 4858   7.912   3.783   5.847  0.2122 -0.4016 -0.1246
 2094W        W 4859   1.981   3.308   7.032  0.1068  0.3562  0.0805
 2095W        W 4860   5.868   0.995   0.030  0.0461 -0.0341 -0.0435
 2096W        W 4861   7.436   3.678   0.823  0.0121 -0.0165 -0.1019
 2097W        W 4862   6.282   7.634   6.928  0.1070  0.2815 -0.0484
 2098W        W 4863   6.670   8.528   6.433  0.0940  0.0135  0.3250
 2099W        W 4864   0.844   0.633   0.764 -0.0165  0.1099 -0.1443
 2100W        W 4865   8.658   0.395   0.775 -0.0441  0.2978  0.2369
 2101W        W 4866   9.056   8.811   6.829  0.0975  0.1541  0.0912
 2102W        W 4867   8.348   6.614   6.260 -0.2877  0.2546 -0.2405
 2103W        W 4868   5.709   8.934   0.213  0.1502 -0.1010 -0.0395
 2104W        W 4869   0.672   5.508   4.723 -0.2162  0.0084  0.1088
 2105W        W 4870   2.208   4.576   6.031  0.1810 -0.0571  0.0971
 2106W        W 4871   4.380   1.112   1.100  0.0714  0.0578 -0.1301
 2107W        W 4872   3.576   8.140   6.130  0.0513  0.0063  0.0801
 2108W        W 4873   7.513   2.566   4.842 -0.0340  0.0420  0.0044
 2109W        W 4874   7.621   5.527   6.757  0.0378 -0.5603  0.1857
 2110W        W 4875   1.167   6.775   0.001  0.1960  0.0648  0.0159
 2111W        W 4876   8.269   8.327   6.172 -0.1664  0.0107 -0.0512
 2112W        W 4877   3.010   3.601   6.657 -0.0888 -0.2055 -0.2020
 2113W        W 4878   2.861   2.652   6.750  0.3096 -0.0244 -0.1684
 2114W        W 4879   6.009   7.374   0.291 -0.1735 -0.0284  0.2169
 2115W        W 4880   0.892   5.782   6.019  0.1228  0.1118 -0.1013
 2116W        W 4881   7.536   4.961   0.839  0.3084 -0.1031  0.3145
 2117W        W 4882   3.371   5.746   7.029 -0.1710  0.3304  0.2129
 2118W        W 4883   2.889   3.164   1.196  0.0106 -0.2400 -0.3046
 2119W        W 4884   6.649   8.246   0.077  0.0545  0.0479 -0.1087
 2120W        W 4885   9.069   0.428   1.170 -0.0527 -0.0183  0.3093
 2121W        W 4886   2.407   3.481   6.805  0.1008  0.1903 -0.1197
 2122W        W 4887   8.610   1.372   6.147 -0.3319 -0.1251  0.2376
 2123W        W 4888   2.173   0.356   1.061 -0.0084  0.0790 -0.0340
 2124W        W 4889   3.610   6.942   0.717 -0.0208  0.1395 -0.0903
 2125W        W 4890   4.728   5.998   0.979 -0.1977  0.1038 -0.4437
 2126W        W 4891   0.289   4.428   0.933 -0.0013  0.2653 -0.1490
 2127W        W 4892   4.900   2.651   0.240 -0.0043  0.2769 -0.0830
 2128W        W 4893   0.375   5.912   5.742  0.1249  0.0392  0.3228
 2129W        W 4894   7.697   2.912   5.984  0.1981 -0.0022 -0.3011
 2130W        W 4895   7.678   7.711   6.890 -0.0443  0.2320  0.1363
 2131W        W 4896   3.029   5.710   2.186 -0.0520 -0.0160  0.0377
 2132W        W 4897   3.280   7.640   0.360 -0.1293  0.1517  0.1142
 2133W        W 4898   4.034   2.785   6.780  0.6614  0.2458  0.0078
 2134W        W 4899   2.467   5.880   6.772  0.1849  0.0270  0.0497
 2135W        W 4900   1.677   7.635   0.543 -0.2078  0.1689 -0.2561
 2136W        W 4901   4.489   2.529   6.515  0.1402  0.0455 -0.0669
 2137W        W 4902   3.532   7.328   0.070  0.1083  0.2625 -0.1168
 2138W        W 4903   1.063   9.022   5.389 -0.0143  0.0205  0.2197
 2139W        W 4904   1.269   1.896   6.595  0.1657 -0.3463 -0.1584
 2140W        W 4905   7.012   7.494   1.069 -0.1468 -0.2705  0.2335
 2141W        W 4906   8.985   7.208   6.895  0.0375  0.3794 -0.2064
 2142W        W 4907   8.881   8.003   5.299  0.1492  0.2216 -0.1976
 2143W        W 4908   2.641   5.508   5.596 -0.1467  0.2059  0.3114
 2144W        W 4909   7.464   2.189   6.426  0.2149 -0.1977  0.1542
 2145W        W 4910   7.389   4.683   5.664 -0.0174  0.0514 -0.0079
 2146W        W 4911   8.948   3.793   6.040  0.2246 -0.1467  0.0191
 2147W        W 4912   1.332   1.155   7.106 -0.0350  0.2724 -0.1169
 2148W        W 4913   2.923   6.356   5.552 -0.0201  0.0281 -0.1046
 2149W        W 4914   3.575   2.894   7.070 -0.0750 -0.0354  0.3393
 2150W        W 4915   0.336   1.404   0.054  0.1395  0.0088  0.1373
 2151W        W 4916   2.064   1.814   0.490  0.0020 -0.1713 -0.2749
 2152W        W 4917   9.105   8.149   5.942  0.2816 -0.2127  0.4033
 2153W        W 4918   4.821   6.953   7.112  0.0261  0.2353 -0.1044
 2154W        W 4919   1.603   3.539   6.770 -0.1370 -0.0935  0.3171
 2155W        W 4920   1.547   5.760   0.029 -0.0995 -0.1878 -0.0824
 2156W        W 4921   4.431   5.116   6.122  0.1331 -0.2423 -0.1175
 2157W        W 4922   5.913   6.168   6.643 -0.3186  0.2145  0.0983
 2158W        W 4923   4.310   0.468   1.897 -0.0749  0.1303  0.0847
 2159W        W 4924   8.485   0.144   6.200 -0.0853  0.2510  0.0682
 2160W        W 4925   5.486   1.970   0.566 -0.3230 -0.0360  0.3474
 2161W        W 4926   0.941   6.144   5.718 -0.0454 -0.1288  0.1452
 2162W        W 4927   8.701   2.248   5.289  0.1858  0.0710  0.0083
 2163W        W 4928   8.177   7.308   6.707  0.2280  0.2009 -0.0457
 2164W        W 4929   1.687   4.425   5.106 -0.0550  0.1336  0.1966
 2165W        W 4930   4.373   7.648   6.204 -0.3269  0.3744  0.3559
 2166W        W 4931   1.094   6.590   1.378 -0.0590  0.1400  0.0434
 2167W        W 4932   6.937   1.315   6.909 -0.0262 -0.1433  0.1641
 2168W        W 4933   5.501   1.822   1.705  0.2190  0.4179  0.0513
 2169W        W 4934   2.577   0.623   5.389 -0.1070  0.1399  0.1408
 2170W        W 4935   3.272   3.403   6.277  0.1904 -0.1500 -0.3523
 2171W        W 4936   1.679   5.901   5.554  0.2064  0.1570  0.1026
 2172W        W 4937   0.019   6.845   0.134  0.1395 -0.1444  0.1079
 2173W        W 4938   7.846   1.737   5.277 -0.0015  0.1409 -0.1115
 2174W        W 4939   2.892   9.104   5.789 -0.1408  0.0640  0.0884
 2175W        W 4940   6.123   3.743   0.835 -0.0710  0.2092 -0.1205
 2176W        W 4941   7.798   2.478   1.082  0.0000  0.1341 -0.0292
 2177W        W 4942   5.307   3.943   0.697 -0.0182  0.0266  0.2269
 2178W        W 4943   5.850   0.446   6.329 -0.1960  0.4065  0.0856
 2179W        W 4944   7.067   0.994   0.584 -0.0082  0.2515 -0.2136
 2180W        W 4945   3.028   5.794   6.601 -0.0531  0.0079 -0.1881
 2181W        W 4946   0.370   5.133   5.792 -0.2684 -0.1609  0.2023
 2182W        W 4947   6.211   6.504   0.668  0.1151 -0.1848 -0.2146
 2183W        W 4948   0.770   3.671   0.350 -0.1830 -0.0104  0.1465
 2184W        W 4949   0.640   0.204   0.538 -0.0433  0.0057 -0.3400
 2185W        W 4950   6.336   5.711   0.195 -0.1400  0.2163  0.0571
 2186W        W 4951   5.907   2.253   1.298 -0.0869 -0.3089  0.2427
 2187W        W 4952   0.275   2.096   4.800 -0.4621 -0.0299 -0.1226
 2188W        W 4953   5.915   7.746   2.190 -0.0659  0.1423  0.2616
 2189W        W 4954   5.133   3.570   6.486 -0.0602 -0.0386 -0.2385
 2190W        W 4955   4.459   3.958   0.033 -0.0178  0.0482 -0.1869
 2191W        W 4956   2.207   6.115   5.421 -0.1347 -0.1071 -0.2026
 2192W        W 4957   1.912   6.601   6.258 -0.1469  0.2215  0.1487
 2193W        W 4958   4.739   7.744   6.937 -0.0450  0.1052 -0.0467
 2194W        W 4959   2.898   5.604   1.220  0.0746  0.0402 -0.0593
 2195W        W 4960   6.738   7.668   0.102  0.1172 -0.3163  0.1665
 2196W        W 4961   2.201   2.044   1.845  0.2201  0.2059 -0.0062
 2197W        W 4962   0.980   8.698   0.152  0.2245  0.3153 -0.1604
 2198W        W 4963   4.617   5.433   6.450  0.2646  0.1632  0.0513
 2199W        W 4964   4.920   0.056   6.653  0.0740 -0.1695 -0.0433
 2200W        W 4965   1.269   1.630   6.142  0.0481 -0.1007 -0.2862
 2201W        W 4966   5.143   0.336   6.966 -0.1848  0.0192  0.1151
 2202W        W 4967   0.512   8.547   0.871  0.1185 -0.0085  0.0429
 2203W        W 4968   0.120   9.091   0.401  0.0792  0.0177  0.2189
 2204W        W 4969   2.477   1.051   6.973 -0.2197 -0.0274 -0.0351
 2205W        W 4970   5.809   4.246   0.162  0.0600 -0.0498 -0.2456
 2206W        W 4971   6.957   3.180   0.090 -0.0100  0.1259  0.1277
 2207W        W 4972   2.853   6.875   0.353 -0.0540 -0.1486 -0.1651
 2208W        W 4973   9.011   7.720   1.681 -0.1265  0.5572  0.0943
 2209W        W 4974   5.653   2.851   6.884  0.0445 -0.1139 -0.1160
 2210W        W 4975   8.923   8.472   6.300 -0.0928 -0.4932 -0.0683
 2211W        W 4976   8.286   1.514   1.776  0.0015  0.0228 -0.0821
 2212W        W 4977   0.578   5.505   0.371 -0.0995 -0.1153 -0.0350
 2213W        W 4978   6.455   9.079   0.678 -0.0917  0.0045  0.0998
 2214W        W 4979   4.309   7.890   6.639 -0.1263 -0.0797  0.1952
 2215W        W 4980   7.393   8.215   6.096 -0.1218 -0.0798 -0.4872
 2216W        W 4981   8.084   8.959   6.169 -0.1666 -0.0212  0.0132
 2217W        W 4982   6.893   0.503   1.825  0.1589  0.2757 -0.0846
 2218W        W 4983   4.859   2.235   0.550  0.1735  0.1517  0.1890
 2219W        W 4984   3.628   0.757   0.729  0.0314 -0.1610 -0.0204
 2220W        W 4985   7.282   6.657   0.621 -0.1557  0.1666  0.0701
 2221W        W 4986   8.171   6.143   5.784  0.0681 -0.1013 -0.0488
 2222W        W 4987   4.080   4.555   5.829  0.1185 -0.0779 -0.1045
 2223W        W 4988   1.119   8.863   6.516 -0.0942  0.1033 -0.0338
 2224W        W 4989   0.368   7.480   6.933 -0.0369  0.1902  0.1275
 2225W        W 4990   1.070   6.486   6.604  0.1690 -0.0103 -0.0191
 2226W        W 4991   8.969   0.529   5.556 -0.1201  0.2218 -0.1164
 2227W        W 4992   6.920   2.032   5.642 -0.3210  0.0068  0.2919
 2228W        W 4993   8.096   8.900   6.685 -0.2554  0.2654 -0.1404
 2229W        W 4994   0.265   9.098   6.047 -0.1328  0.0639 -0.0070
 2230W        W 4995   4.533   6.145   0.037 -0.0472 -0.1685 -0.1727
 2231W        W 4996   3.172   7.062   5.820  0.0454  0.2044 -0.4044
 2232W        W 4997   0.840   6.253   0.847 -0.0218 -0.1752  0.1897
 2233W        W 4998   8.424   5.591   7.099 -0.2548 -0.0744 -0.0535
 2234W        W 4999   9.005   2.504   6.591 -0.1478  0.1894  0.0850
 2235W        W 5000   8.035   1.429   6.874  0.0615  0.0658 -0.1214
 2236W        W 5001   8.234   2.930   6.130  0.0355  0.2118  0.0301
 2237W        W 5002   0.556   0.053   7.021  0.2385  0.3409  0.0726
 2238W        W 5003   5.800   6.287   0.204  0.0558  0.0156  0.1053
 2239W        W 5004   7.057   6.375   6.894  0.0626 -0.1953  0.2375
 2240W        W 5005   6.642   8.990   6.126  0.2124 -0.2052 -0.0660
 2241W        W 5006   7.850   8.492   6.319  0.4651 -0.0065  0.3249
 2242W        W 5007   3.831   3.071   0.510 -0.1093 -0.1340  0.2387
 2243W        W 5008   7.584   8.074   0.459  0.0107 -0.2346 -0.0563
 2244W        W 5009   2.986   0.174   7.019 -0.0594 -0.3201  0.0453
 2245W        W 5010   2.053   6.567   0.007 -0.2895 -0.1577 -0.0548
 2246W        W 5011   5.058   5.885   6.059 -0.0942  0.4030  0.2423
 2247W        W 5012   2.469   2.203   5.981  0.2986 -0.1518 -0.0635
 2248W        W 5013   6.060   4.910   6.601  0.1257 -0.1642 -0.0751
 2249W        W 5014   4.507   2.025   0.147 -0.2338 -0.1978  0.2282
 2250W        W 5015   7.283   0.550   6.812  0.1892 -0.1602 -0.2115
 2251W        W 5016   3.502   1.812   6.406 -0.1599  0.1467  0.1315
 2252W        W 5017   1.130   4.818   5.923  0.3696 -0.1227  0.3606
 2253W        W 5018   2.053   7.975   5.516  0.3216  0.0807  0.3124
 2254W        W 5019   0.242   3.966   6.212 -0.1361  0.0667 -0.1139
 2255W        W 5020   4.362   5.660   0.029 -0.1746 -0.2408 -0.0610
 2256W        W 5021   4.258   4.137   6.162  0.0764  0.4234  0.0495
 2257W        W 5022   6.609   3.782   6.466 -0.1667 -0.0026 -0.3515
 2258W        W 5023   4.315   6.195   5.921 -0.0995  0.1366 -0.1157
 2259W        W 5024   4.147   5.614   6.611  0.4557 -0.1742 -0.0897
 2260W        W 5025   6.583   5.911   5.508  0.1864  0.1517  0.0610
 2261W        W 5026   4.744   1.354   1.404  0.1950  0.1287 -0.0292
 2262W        W 5027   3.474   6.063   1.612  0.2185  0.0096 -0.4231
 2263W        W 5028   1.019   7.702   1.298 -0.1341  0.2564  0.0168
 2264W        W 5029   3.440   7.860   6.586 -0.0697 -0.0634  0.0447
 2265W        W 5030   7.020   2.020   1.262  0.0613 -0.1561  0.0070
 2266W        W 5031   5.635   1.523   1.389  0.0246  0.1005  0.0885
 2267W        W 5032   7.258   3.359   1.745 -0.0942 -0.1220 -0.0009
 2268W        W 5033   6.290   8.626   6.082 -0.1382  0.1673 -0.1903
 2269W        W 5034   8.981   5.947   6.113  0.0797 -0.1137  0.0093
 2270W        W 5035   5.421   6.624   0.216 -0.0131  0.0859 -0.0649
 2271W        W 5036   8.007   1.822   1.440  0.0952 -0.1584 -0.0720
 2272W        W 5037   6.627   4.341   6.220  0.1426  0.0818 -0.0336
 2273W        W 5038   4.311   2.000   0.612  0.3495 -0.1521  0.0729
 2274W        W 5039   8.674   6.365   4.928  0.2996  0.1053 -0.2867
 2275W        W 5040   1.745   0.855   5.971  0.1545  0.0348  0.0701
 2276W        W 5041   8.191   4.853   6.768  0.0687 -0.3817  0.0600
 2277W        W 5042   1.669   7.620   2.117  0.1740 -0.2345 -0.1654
 2278W        W 5043   8.408   6.846   5.238 -0.1498  0.0372  0.0035
 2279W        W 5044   3.416   1.448   6.776  0.2422 -0.3555 -0.0591
 2280W        W 5045   7.598   7.862   0.879  0.0075  0.0609  0.0540
 2281W        W 5046   2.108   8.349   0.776  0.0916  0.3264 -0.1272
 2282W        W 5047   1.720   1.369   1.597  0.2414  0.0438  0.2595
 2283W        W 5048   0.856   0.923   1.786  0.0083 -0.1912  0.1424
 2284W        W 5049   8.078   9.040   1.189 -0.3066 -0.0058  0.3400
 2285W        W 5050   9.036   6.865   1.868  0.0500 -0.0892 -0.0298
 2286W        W 5051   7.507   8.693   1.376 -0.3636  0.2091 -0.0919
 2287W        W 5052   1.442   1.359   5.763 -0.0188 -0.0001  0.0167
 2288W        W 5053   8.147   0.838   5.422 -0.1490 -0.1119  0.0483
 2289W        W 5054   4.845   1.841   6.831  0.1927 -0.0476  0.1019
 2290W        W 5055   5.348   0.657   0.577 -0.1033  0.1310  0.2485
 2291W        W 5056   5.489   5.026   1.059  0.0656 -0.3033  0.0798
 2292W        W 5057   7.117   5.461   6.971 -0.3605  0.1566  0.1303
 2293W        W 5058   3.329   2.402   6.194 -0.0974 -0.2545 -0.2390
 2294W        W 5059   6.024   4.044   6.868  0.1718  0.1710 -0.0005
 2295W        W 5060   6.368   8.485   6.866 -0.3395  0.0424  0.0096
 2296W        W 5061   0.284   2.747   6.435 -0.0063 -0.0254  0.0030
 2297W        W 5062   5.536   5.391   0.734 -0.1029 -0.4376  0.0363
 2298W        W 5063   1.542   5.147   5.904 -0.0671 -0.1004 -0.2758
 2299W        W 5064   7.610   7.413   1.771  0.0183  0.0645 -0.2501
 2300W        W 5065   6.759   3.698   5.439  0.0826 -0.0962 -0.0574
 2301W        W 5066   5.518   7.890   0.433  0.0038 -0.1461  0.4390
 2302W        W 5067   1.259   1.356   1.324  0.0825  0.0879 -0.1827
 2303W        W 5068   5.568   4.803   5.452 -0.2688  0.2438 -0.1633
 2304W        W 5069   6.346   8.121   6.268  0.0644 -0.1181  0.0226
 2305W        W 5070   9.010   0.540   0.264 -0.1762 -0.2618 -0.0125
 2306W        W 5071   9.001   4.478   0.681  0.1092  0.3293 -0.2036
 2307W        W 5072   6.985   8.327   6.829 -0.0243 -0.1174  0.1153
 2308W        W 5073   4.128   4.409   0.863  0.1663 -0.0964 -0.2569
 2309W        W 5074   3.990   4.160   5.533  0.1262 -0.2353 -0.0268
 2310W        W 5075   3.966   1.607   6.900  0.2781  0.2530  0.3490
 2311W        W 5076   7.212   1.439   0.371  0.0126 -0.1669 -0.0152
 2312W        W 5077   5.621   3.230   6.559 -0.0066  0.0832  0.1064
 2313W        W 5078   4.450   2.452   1.524 -0.1267 -0.2018 -0.0251
 2314W        W 5079   5.005   8.898   2.077 -0.0328 -0.1348  0.0292
 2315W        W 5080   1.079   5.325   6.605 -0.1293  0.2711 -0.4193
 2316W        W 5081   6.552   3.970   6.902  0.3403 -0.2857 -0.0616
 2317W        W 5082   1.476   0.853   6.507  0.2332  0.0681 -0.0270
 2318W        W 5083   4.022   4.746   6.757 -0.3803  0.2656  0.3436
 2319W        W 5084   6.112   0.971   0.485 -0.1383  0.0306 -0.0888
 2320W        W 5085   2.048   2.387   0.520  0.3401  0.2562 -0.1948
 2321W        W 5086   5.760   2.329   0.683 -0.0402  0.3307  0.1024
 2322W        W 5087   8.084   6.019   0.944  0.3447 -0.0173 -0.1534
 2323W        W 5088   6.353   0.778   5.533 -0.0380  0.1958 -0.0205
 2324W        W 5089   5.559   6.469   0.715  0.3744  0.4167  0.0963
 2325W        W 5090   2.562   4.992   0.432  0.0264 -0.0846 -0.0108
 2326W        W 5091   7.583   6.494   1.303  0.2905  0.2939 -0.1805
 2327W        W 5092   2.090   8.442   1.242 -0.0421 -0.2916  0.1804
 2328W        W 5093   1.698   2.117   0.307 -0.4040  0.0469 -0.2725
 2329W        W 5094   8.997   1.562   6.946  0.2770  0.5220 -0.3591
 2330W        W 5095   5.903   6.008   5.987  0.2052 -0.0157 -0.1323
 2331W        W 5096   0.316   5.405   0.771  0.3624 -0.1098 -0.2066
 2332W        W 5097   3.319   1.283   6.295 -0.0035  0.1161  0.0388
 2333W        W 5098   5.090   0.861   1.653 -0.2985 -0.1084  0.1090
 2334W        W 5099   1.031   3.159   6.201  0.1894  0.0160 -0.0006
 2335W        W 5100   6.710   0.697   1.024 -0.0497  0.1298  0.1822
 2336W        W 5101   0.197   5.878   0.305  0.3249 -0.0193 -0.1793
 2337W        W 5102   5.954   3.149   1.744 -0.1139  0.1040 -0.2611
 2338W        W 5103   7.055   4.522   0.343 -0.0638 -0.2044  0.0142
 2339W        W 5104   4.030   8.735   1.875 -0.0676 -0.1059 -0.0268
 2340W        W 5105   5.440   9.124   6.937 -0.2035 -0.1729  0.2163
 2341W        W 5106   0.640   6.244   6.643  0.2764  0.5253 -0.0395
 2342W        W 5107   7.107   3.976   0.483  0.0004  0.1337 -0.0978
 2343W        W 5108   0.398   6.355   0.180 -0.0120  0.0721  0.2100
 2344W        W 5109   3.826   7.948   1.395  0.0611 -0.0287  0.1438
 2345W        W 5110   3.780   4.859   1.098  0.2060  0.0415 -0.1165
 2346W        W 5111   0.907   6.677   5.822 -0.5380  0.2060  0.2802
 2347W        W 5112   6.483   1.674   0.907 -0.0570  0.0307 -0.1898
 2348W        W 5113   8.335   3.899   0.762 -0.1077  0.2497  0.0318
 2349W        W 5114   0.503   6.462   1.163  0.0757 -0.2040 -0.3833
 2350W        W 5115   2.132   5.770   5.891 -0.0227 -0.0626  0.2044
 2351W        W 5116   3.875   0.722   0.326  0.2556  0.0203  0.0092
 2352W        W 5117   7.546   8.921   6.229 -0.2087 -0.0810 -0.0292
 2353W        W 5118   5.716   3.075   0.586  0.1110  0.1718 -0.2325
 2354W        W 5119   0.127   6.377   6.441 -0.0183 -0.1803 -0.0925
 2355W        W 5120   3.853   6.163   1.285 -0.0712 -0.2057  0.1485
 2356W        W 5121   0.639   3.136   5.035 -0.0486 -0.0659 -0.0800
 2357W        W 5122   2.475   5.621   0.982  0.2849  0.3073  0.0517
 2358W        W 5123   0.734   4.040   5.987 -0.0556 -0.0152  0.2534
 2359W        W 5124   5.674   8.179   1.866  0.0283 -0.1332 -0.0357
 2360W        W 5125   1.693   7.345   0.954 -0.0990  0.0390 -0.0701
 2361W        W 5126   7.952   6.160   0.094  0.6413  0.0982  0.1844
 2362W        W 5127   8.639   0.200   0.172 -0.0750 -0.0039  0.1459
 2363W        W 5128   1.152   5.358   6.150  0.0559  0.0320 -0.0073
 2364W        W 5129   3.784   2.655   0.798  0.2418  0.0314  0.1430
 2365W        W 5130   7.074   6.021   6.067  0.1453 -0.1926 -0.2674
 2366W        W 5131   7.959   6.602   5.930  0.1884  0.3590 -0.4283
 2367W        W 5132   3.048   2.016   1.920  0.0035 -0.1724 -0.1652
 2368W        W 5133   3.734   2.242   6.453 -0.2782 -0.1109  0.2621
 2369W        W 5134   7.775   0.961   0.023  0.3159 -0.1316  0.0387
 2370W        W 5135   7.589   8.669   6.712  0.1559  0.0700  0.0903
 2371W        W 5136   8.716   1.912   0.759 -0.0614  0.1681 -0.1734
 2372W        W 5137   1.572   5.576   1.399 -0.0587 -0.0126 -0.1005
 2373W        W 5138   5.417   0.696   1.115 -0.3144  0.3299 -0.0342
 2374W        W 5139   3.008   4.949   6.751 -0.2158  0.1689 -0.2759
 2375W        W 5140   7.408   2.259   0.054 -0.1675 -0.1048  0.1991
 2376W        W 5141   5.705   2.311   6.355 -0.0256 -0.1870 -0.0281
 2377W        W 5142   4.481   0.010   0.859 -0.0761  0.0188 -0.2993
 2378W        W 5143   0.818   7.724   7.051  0.2813  0.0221 -0.1896
 2379W        W 5144   0.095   6.858   6.255  0.1474 -0.2871 -0.0651
 2380W        W 5145   2.742   3.179   6.579  0.0337 -0.0339 -0.2065
 2381W        W 5146   7.369   2.268   5.925 -0.0236 -0.3043  0.1408
 2382W        W 5147   0.924   3.039   0.048  0.1118 -0.2734  0.1603
 2383W        W 5148   8.261   6.538   0.048  0.2000 -0.2717  0.1643
 2384W        W 5149   4.769   8.208   2.402  0.0279 -0.1729  0.1070
 2385W        W 5150   6.328   2.914   6.574 -0.2442 -0.0473  0.1926
 2386W        W 5151   2.049   0.363   1.617  0.1218 -0.0798 -0.2384
 2387W        W 5152   1.547   5.288   6.458  0.2365  0.4094 -0.3790
 2388W        W 5153   3.818   2.425   7.055  0.0002 -0.0056  0.0542
 2389W        W 5154   3.538   2.102   0.314  0.1313 -0.3476  0.1932
 2390W        W 5155   0.184   1.540   5.620  0.1655  0.1875  0.0249
 2391W        W 5156   6.491   1.860   6.126  0.0792 -0.0244 -0.3790
 2392W        W 5157   7.746   6.581   0.328 -0.0927 -0.1074  0.0759
 2393W        W 5158   8.067   7.589   5.447 -0.1162 -0.0433  0.0484
 2394W        W 5159   1.693   7.807   6.759  0.3145  0.0275  0.1537
 2395W        W 5160   7.847   7.983   6.162  0.1077 -0.0528  0.0294
 2396W        W 5161   8.292   7.293   6.183  0.0068  0.1461  0.0122
 2397W        W 5162   7.346   5.570   1.361  0.2154  0.0497 -0.3571
 2398W        W 5163   3.339   1.050   1.138  0.1699  0.2252  0.0176
 2399W        W 5164   6.943   7.259   5.393  0.1611 -0.0954  0.0311
 2400W        W 5165   5.940   4.285   5.159  0.1350 -0.0539 -0.2988
 2401W        W 5166   1.889   3.063   5.607  0.1302 -0.1043  0.1860
 2402W        W 5167   0.339   7.963   0.045  0.0369 -0.0436  0.3259
 2403W        W 5168   6.874   1.780   6.475 -0.1523 -0.1087  0.1132
 2404W        W 5169   6.005   8.450   6.472 -0.0935  0.0723 -0.3825
 2405W        W 5170   3.184   1.836   0.615 -0.1020 -0.0478 -0.1315
 2406W        W 5171   1.782   1.708   5.979  0.1789  0.2254  0.1886
 2407W        W 5172   4.053   2.693   6.309 -0.0981 -0.0954  0.1795
 2408W        W 5173   1.939   1.885   7.050 -0.3310 -0.0754  0.1840
 2409W        W 5174   1.971   7.241   0.458 -0.3831 -0.1769  0.0452
 2410W        W 5175   5.401   2.438   6.832 -0.0299  0.2907 -0.1256
 2411W        W 5176   3.727   9.110   6.875  0.2431 -0.0640  0.2160
 2412W        W 5177   7.014   8.945   1.434  0.0397  0.1812 -0.1168
 2413W        W 5178   2.213   5.303   0.691 -0.0909  0.1413  0.3578
 2414W        W 5179   9.084   0.803   6.364  0.1932 -0.0436  0.0941
 2415W        W 5180   5.645   8.804   5.605 -0.2286 -0.4682  0.1620
 2416W        W 5181   5.425   4.635   1.378  0.2634 -0.3681  0.1250
 2417W        W 5182   6.959   0.546   6.332 -0.2568 -0.0924 -0.0075
 2418W        W 5183   3.189   8.553   0.823  0.2744  0.2665  0.1045
 2419W        W 5184   0.063   6.451   5.089  0.2146 -0.2511  0.0162
 2420W        W 5185   1.543   8.297   5.858  0.1003 -0.1209 -0.2803
 2421W        W 5186   6.924   8.185   6.171  0.0331  0.0427 -0.0536
 2422W        W 5187   1.784   6.214   4.662 -0.0907 -0.3059 -0.0883
 2423W        W 5188   5.027   4.522   0.434  0.1260  0.0536  0.0904
 2424W        W 5189   8.049   7.968   0.267 -0.0166 -0.2520 -0.1591
 2425W        W 5190   8.301   7.982   5.237  0.0358 -0.1088  0.0425
 2426W        W 5191   0.546   2.178   1.324 -0.3017 -0.2083  0.1234
 2427W        W 5192   2.571   3.880   6.431 -0.0184  0.0201  0.1326
 2428W        W 5193   0.367   8.552   7.094 -0.1354  0.0917  0.6074
 2429W        W 5194   2.046   0.244   0.191 -0.2224 -0.0450  0.1466
 2430W        W 5195   7.283   6.643   0.139 -0.0489 -0.0517  0.0084
 2431W        W 5196   6.741   6.134   0.519 -0.0933 -0.0186 -0.0263
 2432W        W 5197   8.207   4.345   0.836  0.2773 -0.2335  0.0634
 2433W        W 5198   0.969   0.549   1.467  0.0185  0.0987 -0.2271
 2434W        W 5199   0.793   4.509   6.901  0.0881  0.0550  0.0744
 2435W        W 5200   3.180   3.001   6.749  0.2191 -0.1347  0.0156
 2436W        W 5201   0.254   7.445   0.879  0.0132 -0.0275  0.1138
 2437W        W 5202   1.656   5.614   6.087 -0.2536 -0.1647  0.0074
 2438W        W 5203   1.610   1.578   6.940 -0.0548  0.0699  0.0810
 2439W        W 5204   1.281   2.870   0.832  0.0396 -0.0690 -0.2302
 2440W        W 5205   4.551   8.640   0.866 -0.2272 -0.0215 -0.5177
 2441W        W 5206   3.121   8.602   1.645 -0.1643 -0.2696  0.0674
 2442W        W 5207   0.443   0.435   1.192 -0.0836  0.5309  0.0336
 2443W        W 5208   2.732   7.603   0.609 -0.0617  0.2223  0.1037
 2444W        W 5209   8.138   6.844   0.460 -0.1901 -0.2051 -0.2921
 2445W        W 5210   3.546   6.907   1.314  0.2088 -0.0812  0.1247
 2446W        W 5211   2.091   4.605   6.670  0.3011  0.3224  0.2221
 2447W        W 5212   6.502   2.268   6.536 -0.1702  0.0749 -0.1532
 2448W        W 5213   0.327   8.335   0.424  0.0289  0.0231 -0.0624
 2449W        W 5214   6.770   6.651   0.195 -0.2864 -0.0297 -0.0249
 2450W        W 5215   8.780   7.441   6.164 -0.0330 -0.0187 -0.0229
 2451W        W 5216   3.952   8.879   5.833 -0.1321 -0.0476 -0.0933
 2452W        W 5217   4.903   6.450   6.066 -0.0165  0.1959  0.1305
 2453W        W 5218   4.397   0.732   0.391  0.3087  0.1013  0.1183
 2454W        W 5219   7.771   6.639   6.983 -0.0516 -0.1449  0.1110
 2455W        W 5220   2.976   3.903   6.166  0.2743 -0.1951 -0.0423
 2456W        W 5221   0.803   2.712   1.104  0.0267  0.3676  0.2198
 2457W        W 5222   5.227   0.205   0.835  0.0393 -0.1404 -0.1802
 2458W        W 5223   4.883   7.255   6.690 -0.1386  0.0188 -0.2756
 2459W        W 5224   8.516   7.131   0.627  0.0350 -0.0995  0.0705
 2460W        W 5225   3.438   8.085   1.014 -0.0086  0.0728  0.2305
 2461W        W 5226   2.355   4.957   6.359  0.0971 -0.0702 -0.1594
 2462W        W 5227   7.451   0.309   0.695  0.0901 -0.0875 -0.2119
 2463W        W 5228   6.578   2.167   1.089 -0.3088  0.2600 -0.0146
 2464W        W 5229   2.083   2.463   1.081  0.0301 -0.1577  0.0319
 2465W        W 5230   8.971   1.675   6.401 -0.3025  0.0666 -0.0724
 2466W        W 5231   0.751   8.249   0.010 -0.2173  0.2929  0.1481
 2467W        W 5232   4.123   3.362   1.450  0.0834 -0.1366  0.0641
 2468W        W 5233   6.207   6.000   0.629  0.2842  0.0407 -0.1312
 2469W        W 5234   6.745   7.382   6.628 -0.0631  0.1612 -0.2889
 2470W        W 5235   6.029   0.617   6.802  0.0269 -0.1083 -0.2001
 2471W        W 5236   4.629   6.174   5.259  0.0376  0.2138  0.0329
 2472W        W 5237   2.236   4.243   6.380  0.0932  0.1361  0.1842
 2473W        W 5238   3.546   0.249   0.788 -0.0970 -0.1756  0.1453
 2474W        W 5239   3.056   5.789   1.684  0.0167 -0.1006 -0.2155
 2475W        W 5240   3.361   7.780   1.445 -0.0280 -0.2463 -0.0546
 2476W        W 5241   8.242   7.736   6.444  0.0435 -0.0073 -0.0197
 2477W        W 5242   2.802   8.164   6.441  0.1503 -0.0398 -0.2433
 2478W        W 5243   7.285   5.289   0.521  0.1084  0.0663 -0.2921
 2479W        W 5244   1.092   3.360   6.689 -0.0061 -0.1809 -0.0151
 2480W        W 5245   1.049   8.159   5.878 -0.0038 -0.2430 -0.2313
 2481W        W 5246   0.862   1.042   7.095 -0.1287  0.0254 -0.1803
 2482W        W 5247   3.925   7.575   6.466 -0.0924  0.0043  0.1877
 2483W        W 5248   5.821   0.803   0.877  0.1341  0.0214  0.2507
 2484W        W 5249   5.940   1.805   1.921  0.1577  0.3034  0.0579
 2485W        W 5250   2.856   0.612   0.381  0.1514 -0.1457 -0.2134
 2486W        W 5251   3.875   5.822   7.080  0.0053  0.1886  0.1223
 2487W        W 5252   1.816   8.752   5.969 -0.2433  0.0250 -0.2425
 2488W        W 5253   0.048   1.258   6.042  0.1138 -0.2680  0.0619
 2489W        W 5254   4.043   7.280   2.040 -0.2461 -0.2919 -0.0316
 2490W        W 5255   5.454   2.318   5.889  0.1308 -0.1974 -0.0948
 2491W        W 5256   5.080   4.942   0.201  0.0937  0.1723 -0.1440
 2492W        W 5257   4.093   8.223   6.343 -0.1325  0.0097 -0.3241
 2493W        W 5258   1.166   1.291   1.832  0.0992  0.1648  0.0526
 2494W        W 5259   6.614   7.422   1.510  0.1222  0.1391  0.2542
 2495W        W 5260   3.166   3.645   5.457  0.1404  0.1544  0.1386
 2496W        W 5261   4.251   1.481   1.528 -0.1124  0.1652 -0.0885
 2497W        W 5262   2.453   1.672   5.857 -0.1990  0.0569  0.2187
 2498W        W 5263   1.731   5.346   6.983 -0.1065  0.1103  0.1168
 2499W        W 5264   1.603   8.205   0.678  0.1246 -0.2091  0.0957
 2500W        W 5265   1.422   0.027   5.786 -0.1160  0.0040 -0.0243
 2501W        W 5266   1.169   8.471   6.819  0.1040  0.1885 -0.3978
 2502W        W 5267   0.964   7.217   0.086  0.2613  0.0310 -0.1307
 2503W        W 5268   8.003   6.719   4.910  0.1441 -0.4027  0.0077
 2504W        W 5269   4.890   4.140   1.096  0.1871 -0.0155 -0.2264
 2505W        W 5270   4.000   7.228   0.315  0.0362 -0.1671  0.0768
 2506W        W 5271   5.099   4.608   1.015 -0.2236 -0.0593  0.0115
 2507W        W 5272   6.702   8.862   1.984  0.1240 -0.5044 -0.2379
 2508W        W 5273   1.990   7.396   5.722  0.0200 -0.0249  0.0145
 2509W        W 5274   2.590   1.506   6.717  0.2329  0.0007  0.0245
 2510W        W 5275   0.271   1.126   0.822  0.2228  0.4350  0.2131
 2511W        W 5276   3.578   4.650   5.918  0.2197  0.3731 -0.3065
 2512W        W 5277   1.755   1.032   6.949 -0.3454  0.4112  0.1105
 2513W        W 5278   5.812   4.475   6.621  0.0079  0.3305 -0.3929
 2514W        W 5279   4.130   8.696   0.542  0.2163 -0.2146 -0.2260
 2515W        W 5280   6.823   8.002   0.509 -0.0062 -0.0384 -0.0494
 2516W        W 5281   0.209   8.695   1.234  0.0109  0.1889 -0.2874
 2517W        W 5282   6.798   4.991   1.198 -0.0097  0.0455 -0.0719
 2518W        W 5283   1.387   6.236   0.222 -0.2139  0.0334 -0.0145
 2519W        W 5284   2.714   8.480   5.190 -0.2251 -0.0445 -0.1687
 2520W        W 5285   3.783   9.108   0.409 -0.0335 -0.2934  0.0710
 2521W        W 5286   1.817   4.194   6.044 -0.2045 -0.3981  0.0993
 2522W        W 5287   8.597   2.106   5.807 -0.0656  0.0346  0.0269
 2523W        W 5288   8.770   5.450   0.318  0.3526  0.0284 -0.0710
 2524W        W 5289   6.582   5.679   0.744 -0.0995 -0.0932 -0.5305
 2525W        W 5290   4.781   4.078   0.507  0.1633 -0.1495 -0.1317
 2526W        W 5291   7.890   4.203   6.178  0.0562  0.4862  0.1007
 2527W        W 5292   4.530   6.082   1.575  0.1438 -0.1217  0.2399
 2528W        W 5293   0.668   2.351   6.593  0.0550 -0.0820 -0.2935
 2529W        W 5294   3.929   3.097   1.060 -0.2966 -0.4137  0.0281
 2530W        W 5295   2.330   0.987   0.328  0.0688 -0.2624 -0.0173
 2531W        W 5296   0.841   3.615   1.453  0.0712 -0.0190 -0.0016
 2532W        W 5297   8.666   4.053   1.652  0.1716  0.1994  0.0896
 2533W        W 5298   4.206   5.834   1.301 -0.2123  0.2039  0.5146
 2534W        W 5299   7.118   3.519   5.889 -0.1277 -0.1748  0.2429
 2535W        W 5300   5.378   8.789   0.560 -0.1879 -0.1946  0.1015
 2536W        W 5301   2.982   6.282   6.093 -0.0861 -0.1306 -0.1288
 2537W        W 5302   2.909   1.466   0.935  0.1866 -0.1265  0.0396
 2538W        W 5303   4.485   3.301   5.864 -0.0266  0.1119  0.3452
 2539W        W 5304   0.873   2.239   0.310  0.0146  0.1650 -0.2792
 2540W        W 5305   8.246   8.610   1.939  0.3198 -0.0342  0.4821
 2541W        W 5306   8.604   4.884   6.341  0.2527  0.1349 -0.0253
 2542W        W 5307   0.345   7.950   0.755 -0.0927 -0.1429  0.0972
 2543W        W 5308   4.067   2.927   1.601 -0.1160  0.0045  0.1364
 2544W        W 5309   7.802   2.465   6.730  0.2092  0.4319 -0.3349
 2545W        W 5310   7.051   8.151   0.996 -0.3236  0.3075  0.1597
 2546W        W 5311   5.194   7.702   6.244 -0.2263 -0.3967 -0.0494
 2547W        W 5312   0.405   7.261   6.213 -0.2838 -0.2748  0.0341
 2548W        W 5313   1.653   6.701   0.310 -0.1821  0.0139  0.1472
 2549W        W 5314   8.876   8.536   1.227  0.1624  0.1095  0.0322
 2550W        W 5315   7.853   2.818   0.575 -0.2862 -0.1516 -0.0674
 2551W        W 5316   5.663   3.730   1.082  0.0770  0.1502  0.0513
 2552W        W 5317   3.019   8.854   5.369  0.0734 -0.1294  0.2240
 2553W        W 5318   0.727   6.488   1.707  0.0397 -0.1497 -0.1624
 2554W        W 5319   5.090   6.838   5.801 -0.0136  0.1278  0.1599
 2555W        W 5320   2.708   4.292   6.021 -0.4700 -0.3497  0.1194
 2556W        W 5321   2.924   6.047   7.026  0.0194 -0.2022  0.0047
 2557W        W 5322   1.383   0.756   0.702  0.0095 -0.0176  0.1237
 2558W        W 5323   3.722   2.923   5.545  0.5049  0.0832  0.0308
 2559W        W 5324   1.979   1.325   0.229  0.0067 -0.0278 -0.0053
 2560W        W 5325   5.847   9.035   6.584  0.1862 -0.0919  0.0066
 2561W        W 5326   7.437   4.828   0.330 -0.3001  0.0972 -0.1565
 2562W        W 5327   3.126   4.742   6.237  0.0836 -0.1269 -0.4414
 2563W        W 5328   6.386   0.179   6.958  0.5110  0.0535  0.1094
 2564W        W 5329   8.552   3.335   6.935 -0.3561  0.1805 -0.1241
 2565W        W 5330   3.208   8.993   6.727 -0.3126  0.1057  0.2042
 2566W        W 5331   6.465   2.489   7.006 -0.1810 -0.0029  0.2698
 2567ION     NA 5332   7.497   7.755   6.013  0.1280  0.3515 -0.0155
 2568ION     NA 5333   6.457   2.689   0.249 -0.0985 -0.0911 -0.2020
 2569ION     NA 5334   8.060   6.278   6.192 -0.4926 -0.2037  0.0989
 2570ION     NA 5335   0.794   7.480   6.179  0.0535 -0.0707  0.0903
 2571ION     NA 5336   5.679   0.964   0.461 -0.5810  0.0820  0.1299
 2572ION     NA 5337   2.440   6.666   0.233  0.3957  0.0913 -0.3426
 2573ION     NA 5338   2.736   8.685   0.832  0.2491 -0.3470 -0.0367
 2574ION     NA 5339   6.097   8.823   0.378 -0.2995  0.6171  0.1387
 2575ION     NA 5340   0.954   8.311   1.366  0.1491 -0.0002 -0.0660
 2576ION     NA 5341   5.035   0.502   1.858 -0.0014  0.2122 -0.1905
 2577ION     NA 5342   3.082   7.994   6.776  0.3701  0.0131  0.0043
 2578ION     NA 5343   4.148   3.667   7.013 -0.0686 -0.0458 -0.2338
 2579ION     NA 5344   7.637   7.876   1.635 -0.0382  0.3483  0.0930
 2580ION     NA 5345   5.560   1.117   1.114 -0.0123  0.2944  0.2291
 2581ION     NA 5346   7.782   7.511   0.717  0.0158 -0.1656  0.2573
 2582ION     NA 5347   4.479   5.238   0.618  0.3781  0.1275 -0.2457
 2583ION     NA 5348   2.407   6.220   1.765  0.1709  0.0517  0.0777
 2584ION     NA 5349   4.777   8.500   0.527 -0.0305  0.0916 -0.3969
 2585ION     NA 5350   3.168   8.754   5.780 -0.3812 -0.1638 -0.0415
 2586ION     NA 5351   7.920   2.076   6.450  0.3220  0.1327 -0.1770
 2587ION     NA 5352   1.909   2.155   6.703 -0.4879 -0.2631 -0.2738
 2588ION     NA 5353   3.354   9.107   0.569 -0.0138  0.0762 -0.0595
 2589ION     NA 5354   3.965   2.116   6.796 -0.0558 -0.1821  0.0393
 2590ION     NA 5355   7.961   1.709   5.686 -0.1558  0.0154 -0.0303
 2591ION     NA 5356   8.437   5.896   5.497 -0.2486  0.1375  0.1687
 2592ION     CL 5357   1.370   3.488   5.920  0.4792  0.7090  0.2037
 2593ION     CL 5358   6.219   0.986   0.914  0.6399  0.4280  0.4811
 2594ION     CL 5359   7.930   7.841   0.634  0.4338  0.2703 -0.1234
 2595ION     CL 5360   5.253   8.892   0.140 -0.0181  0.1003  0.1412
 2596ION     CL 5361   2.434   2.224   6.425 -0.2741 -0.4004  0.0962
 2597ION     CL 5362   0.596   7.150   0.935 -0.6368 -0.2502  0.1454
 2598ION     CL 5363   1.674   3.101   6.745  0.0704  0.0590 -0.1307
 2599ION     CL 5364   0.020   4.767   6.955  0.2243 -0.0704 -0.2789
 2600ION     CL 5365   1.312   5.643   6.770  0.4052 -0.3712 -0.2231
 2601ION     CL 5366   3.224   3.503   0.261 -0.3368  0.1456  0.0849
 2602ION     CL 5367   4.076   2.381   6.640 -0.1426 -0.1988 -0.3108
 2603ION     CL 5368   3.953   1.385   0.695  0.0035  0.0644 -0.4077
 2604ION     CL 5369   8.083   8.744   0.772 -0.1260  0.0324  0.2128
 2605ION     CL 5370   5.748   4.059   6.538  0.0682 -0.5282 -0.0581
 2606ION     CL 5371   1.148   6.123   0.615 -0.2509  0.0241  0.0443
 2607ION     CL 5372   4.391   2.955   6.519 -0.0617  0.0622 -0.5457
 2608ION     CL 5373   7.980   6.935   0.094 -0.2078  0.1807  0.1204
 2609ION     CL 5374   5.788   1.689   0.690 -0.0199  0.1249 -0.1265
 2610ION     CL 5375   5.398   8.274   6.807  0.2089  0.1403 -0.1111
 2611ION     CL 5376   7.667   1.956   6.056 -0.4196  0.2847 -0.3811
 2612ION     CL 5377   7.831   8.026   6.634  0.3030 -0.0715  0.1301
 2613ION     CL 5378   4.652   4.945   0.515 -0.1923 -0.1475  0.3217
 2614ION     CL 5379   6.081   4.489   0.838 -0.2423 -0.1487  0.0424
 2615ION     CL 5380   1.268   9.002   0.306  0.1772  0.1797  0.7902
 2616ION     CL 5381   8.142   1.565   6.385 -0.0127 -0.3394 -0.2543
   9.14777   9.14777   7.11544
